+ 0.3 0 2 tcp 40 ------- 1 0.0 4.0 0 0
- 0.3 0 2 tcp 40 ------- 1 0.0 4.0 0 0
r 0.31016 0 2 tcp 40 ------- 1 0.0 4.0 0 0
+ 0.31016 2 3 tcp 40 ------- 1 0.0 4.0 0 0
- 0.31016 2 3 tcp 40 ------- 1 0.0 4.0 0 0
r 0.320693 2 3 tcp 40 ------- 1 0.0 4.0 0 0
h 0.320693 3 6 tcp 40 ------- 1 0.0 4.0 0 0
+ 0.350693 3 6 tcp 40 ------- 1 0.0 4.0 0 0
- 0.350693 3 6 tcp 40 ------- 1 0.0 4.0 0 0
r 0.380749 6 4 tcp 40 ------- 1 0.0 4.0 0 0
h 0.380749 4 6 ack 40 ------- 1 4.0 0.0 0 1
+ 0.410749 4 6 ack 40 ------- 1 4.0 0.0 0 1
- 0.410749 4 6 ack 40 ------- 1 4.0 0.0 0 1
r 0.440804 6 3 ack 40 ------- 1 4.0 0.0 0 1
+ 0.440804 3 2 ack 40 ------- 1 4.0 0.0 0 1
- 0.440804 3 2 ack 40 ------- 1 4.0 0.0 0 1
r 0.451337 3 2 ack 40 ------- 1 4.0 0.0 0 1
+ 0.451337 2 0 ack 40 ------- 1 4.0 0.0 0 1
- 0.451337 2 0 ack 40 ------- 1 4.0 0.0 0 1
r 0.461497 2 0 ack 40 ------- 1 4.0 0.0 0 1
+ 0.461497 0 2 tcp 1040 ------- 1 0.0 4.0 1 2
- 0.461497 0 2 tcp 1040 ------- 1 0.0 4.0 1 2
+ 0.461497 0 2 tcp 1040 ------- 1 0.0 4.0 2 3
- 0.465657 0 2 tcp 1040 ------- 1 0.0 4.0 2 3
r 0.475657 0 2 tcp 1040 ------- 1 0.0 4.0 1 2
+ 0.475657 2 3 tcp 1040 ------- 1 0.0 4.0 1 2
- 0.475657 2 3 tcp 1040 ------- 1 0.0 4.0 1 2
r 0.479817 0 2 tcp 1040 ------- 1 0.0 4.0 2 3
+ 0.479817 2 3 tcp 1040 ------- 1 0.0 4.0 2 3
- 0.489524 2 3 tcp 1040 ------- 1 0.0 4.0 2 3
r 0.499524 2 3 tcp 1040 ------- 1 0.0 4.0 1 2
h 0.499524 3 6 tcp 1040 ------- 1 0.0 4.0 1 2
+ 0.5 1 2 tcp 40 ------- 1 1.0 5.0 0 4
- 0.5 1 2 tcp 40 ------- 1 1.0 5.0 0 4
r 0.51016 1 2 tcp 40 ------- 1 1.0 5.0 0 4
+ 0.51016 2 3 tcp 40 ------- 1 1.0 5.0 0 4
- 0.51016 2 3 tcp 40 ------- 1 1.0 5.0 0 4
r 0.51339 2 3 tcp 1040 ------- 1 0.0 4.0 2 3
h 0.51339 3 6 tcp 1040 ------- 1 0.0 4.0 2 3
r 0.520693 2 3 tcp 40 ------- 1 1.0 5.0 0 4
h 0.520693 3 6 tcp 40 ------- 1 1.0 5.0 0 4
+ 0.529524 3 6 tcp 1040 ------- 1 0.0 4.0 1 2
- 0.529524 3 6 tcp 1040 ------- 1 0.0 4.0 1 2
+ 0.54339 3 6 tcp 1040 ------- 1 0.0 4.0 2 3
- 0.54339 3 6 tcp 1040 ------- 1 0.0 4.0 2 3
+ 0.550693 3 6 tcp 40 ------- 1 1.0 5.0 0 4
- 0.550693 3 6 tcp 40 ------- 1 1.0 5.0 0 4
r 0.560371 6 4 tcp 1040 ------- 1 0.0 4.0 1 2
h 0.560371 4 6 ack 40 ------- 1 4.0 0.0 1 5
r 0.574238 6 4 tcp 1040 ------- 1 0.0 4.0 2 3
h 0.574238 4 6 ack 40 ------- 1 4.0 0.0 2 6
r 0.580749 6 5 tcp 40 ------- 1 1.0 5.0 0 4
h 0.580749 5 6 ack 40 ------- 1 5.0 1.0 0 7
+ 0.590371 4 6 ack 40 ------- 1 4.0 0.0 1 5
- 0.590371 4 6 ack 40 ------- 1 4.0 0.0 1 5
+ 0.604238 4 6 ack 40 ------- 1 4.0 0.0 2 6
- 0.604238 4 6 ack 40 ------- 1 4.0 0.0 2 6
+ 0.610749 5 6 ack 40 ------- 1 5.0 1.0 0 7
- 0.610749 5 6 ack 40 ------- 1 5.0 1.0 0 7
r 0.620426 6 3 ack 40 ------- 1 4.0 0.0 1 5
+ 0.620426 3 2 ack 40 ------- 1 4.0 0.0 1 5
- 0.620426 3 2 ack 40 ------- 1 4.0 0.0 1 5
r 0.630959 3 2 ack 40 ------- 1 4.0 0.0 1 5
+ 0.630959 2 0 ack 40 ------- 1 4.0 0.0 1 5
- 0.630959 2 0 ack 40 ------- 1 4.0 0.0 1 5
r 0.634293 6 3 ack 40 ------- 1 4.0 0.0 2 6
+ 0.634293 3 2 ack 40 ------- 1 4.0 0.0 2 6
- 0.634293 3 2 ack 40 ------- 1 4.0 0.0 2 6
r 0.640804 6 3 ack 40 ------- 1 5.0 1.0 0 7
+ 0.640804 3 2 ack 40 ------- 1 5.0 1.0 0 7
- 0.640804 3 2 ack 40 ------- 1 5.0 1.0 0 7
r 0.641119 2 0 ack 40 ------- 1 4.0 0.0 1 5
+ 0.641119 0 2 tcp 1040 ------- 1 0.0 4.0 3 8
- 0.641119 0 2 tcp 1040 ------- 1 0.0 4.0 3 8
+ 0.641119 0 2 tcp 1040 ------- 1 0.0 4.0 4 9
r 0.644826 3 2 ack 40 ------- 1 4.0 0.0 2 6
+ 0.644826 2 0 ack 40 ------- 1 4.0 0.0 2 6
- 0.644826 2 0 ack 40 ------- 1 4.0 0.0 2 6
- 0.645279 0 2 tcp 1040 ------- 1 0.0 4.0 4 9
r 0.651337 3 2 ack 40 ------- 1 5.0 1.0 0 7
+ 0.651337 2 1 ack 40 ------- 1 5.0 1.0 0 7
- 0.651337 2 1 ack 40 ------- 1 5.0 1.0 0 7
r 0.654986 2 0 ack 40 ------- 1 4.0 0.0 2 6
+ 0.654986 0 2 tcp 1040 ------- 1 0.0 4.0 5 10
- 0.654986 0 2 tcp 1040 ------- 1 0.0 4.0 5 10
+ 0.654986 0 2 tcp 1040 ------- 1 0.0 4.0 6 11
r 0.655279 0 2 tcp 1040 ------- 1 0.0 4.0 3 8
+ 0.655279 2 3 tcp 1040 ------- 1 0.0 4.0 3 8
- 0.655279 2 3 tcp 1040 ------- 1 0.0 4.0 3 8
- 0.659146 0 2 tcp 1040 ------- 1 0.0 4.0 6 11
r 0.659439 0 2 tcp 1040 ------- 1 0.0 4.0 4 9
+ 0.659439 2 3 tcp 1040 ------- 1 0.0 4.0 4 9
r 0.661497 2 1 ack 40 ------- 1 5.0 1.0 0 7
+ 0.661497 1 2 tcp 1040 ------- 1 1.0 5.0 1 12
- 0.661497 1 2 tcp 1040 ------- 1 1.0 5.0 1 12
+ 0.661497 1 2 tcp 1040 ------- 1 1.0 5.0 2 13
- 0.665657 1 2 tcp 1040 ------- 1 1.0 5.0 2 13
r 0.669146 0 2 tcp 1040 ------- 1 0.0 4.0 5 10
+ 0.669146 2 3 tcp 1040 ------- 1 0.0 4.0 5 10
- 0.669146 2 3 tcp 1040 ------- 1 0.0 4.0 4 9
r 0.673306 0 2 tcp 1040 ------- 1 0.0 4.0 6 11
+ 0.673306 2 3 tcp 1040 ------- 1 0.0 4.0 6 11
r 0.675657 1 2 tcp 1040 ------- 1 1.0 5.0 1 12
+ 0.675657 2 3 tcp 1040 ------- 1 1.0 5.0 1 12
r 0.679146 2 3 tcp 1040 ------- 1 0.0 4.0 3 8
h 0.679146 3 6 tcp 1040 ------- 1 0.0 4.0 3 8
r 0.679817 1 2 tcp 1040 ------- 1 1.0 5.0 2 13
+ 0.679817 2 3 tcp 1040 ------- 1 1.0 5.0 2 13
- 0.683013 2 3 tcp 1040 ------- 1 0.0 4.0 5 10
r 0.693013 2 3 tcp 1040 ------- 1 0.0 4.0 4 9
h 0.693013 3 6 tcp 1040 ------- 1 0.0 4.0 4 9
- 0.696879 2 3 tcp 1040 ------- 1 0.0 4.0 6 11
r 0.706879 2 3 tcp 1040 ------- 1 0.0 4.0 5 10
h 0.706879 3 6 tcp 1040 ------- 1 0.0 4.0 5 10
+ 0.709146 3 6 tcp 1040 ------- 1 0.0 4.0 3 8
- 0.709146 3 6 tcp 1040 ------- 1 0.0 4.0 3 8
- 0.710746 2 3 tcp 1040 ------- 1 1.0 5.0 1 12
r 0.720746 2 3 tcp 1040 ------- 1 0.0 4.0 6 11
h 0.720746 3 6 tcp 1040 ------- 1 0.0 4.0 6 11
+ 0.723013 3 6 tcp 1040 ------- 1 0.0 4.0 4 9
- 0.723013 3 6 tcp 1040 ------- 1 0.0 4.0 4 9
- 0.724613 2 3 tcp 1040 ------- 1 1.0 5.0 2 13
r 0.734613 2 3 tcp 1040 ------- 1 1.0 5.0 1 12
h 0.734613 3 6 tcp 1040 ------- 1 1.0 5.0 1 12
+ 0.736879 3 6 tcp 1040 ------- 1 0.0 4.0 5 10
- 0.736879 3 6 tcp 1040 ------- 1 0.0 4.0 5 10
r 0.739993 6 4 tcp 1040 ------- 1 0.0 4.0 3 8
h 0.739993 4 6 ack 40 ------- 1 4.0 0.0 3 14
r 0.748479 2 3 tcp 1040 ------- 1 1.0 5.0 2 13
h 0.748479 3 6 tcp 1040 ------- 1 1.0 5.0 2 13
+ 0.750746 3 6 tcp 1040 ------- 1 0.0 4.0 6 11
- 0.750746 3 6 tcp 1040 ------- 1 0.0 4.0 6 11
r 0.75386 6 4 tcp 1040 ------- 1 0.0 4.0 4 9
h 0.75386 4 6 ack 40 ------- 1 4.0 0.0 4 15
+ 0.764613 3 6 tcp 1040 ------- 1 1.0 5.0 1 12
- 0.764613 3 6 tcp 1040 ------- 1 1.0 5.0 1 12
r 0.767727 6 4 tcp 1040 ------- 1 0.0 4.0 5 10
h 0.767727 4 6 ack 40 ------- 1 4.0 0.0 5 16
+ 0.769993 4 6 ack 40 ------- 1 4.0 0.0 3 14
- 0.769993 4 6 ack 40 ------- 1 4.0 0.0 3 14
+ 0.778479 3 6 tcp 1040 ------- 1 1.0 5.0 2 13
- 0.778479 3 6 tcp 1040 ------- 1 1.0 5.0 2 13
r 0.781593 6 4 tcp 1040 ------- 1 0.0 4.0 6 11
h 0.781593 4 6 ack 40 ------- 1 4.0 0.0 6 17
+ 0.78386 4 6 ack 40 ------- 1 4.0 0.0 4 15
- 0.78386 4 6 ack 40 ------- 1 4.0 0.0 4 15
r 0.79546 6 5 tcp 1040 ------- 1 1.0 5.0 1 12
h 0.79546 5 6 ack 40 ------- 1 5.0 1.0 1 18
+ 0.797727 4 6 ack 40 ------- 1 4.0 0.0 5 16
- 0.797727 4 6 ack 40 ------- 1 4.0 0.0 5 16
r 0.800049 6 3 ack 40 ------- 1 4.0 0.0 3 14
+ 0.800049 3 2 ack 40 ------- 1 4.0 0.0 3 14
- 0.800049 3 2 ack 40 ------- 1 4.0 0.0 3 14
r 0.809327 6 5 tcp 1040 ------- 1 1.0 5.0 2 13
h 0.809327 5 6 ack 40 ------- 1 5.0 1.0 2 19
r 0.810582 3 2 ack 40 ------- 1 4.0 0.0 3 14
+ 0.810582 2 0 ack 40 ------- 1 4.0 0.0 3 14
- 0.810582 2 0 ack 40 ------- 1 4.0 0.0 3 14
+ 0.811593 4 6 ack 40 ------- 1 4.0 0.0 6 17
- 0.811593 4 6 ack 40 ------- 1 4.0 0.0 6 17
r 0.813915 6 3 ack 40 ------- 1 4.0 0.0 4 15
+ 0.813915 3 2 ack 40 ------- 1 4.0 0.0 4 15
- 0.813915 3 2 ack 40 ------- 1 4.0 0.0 4 15
r 0.820742 2 0 ack 40 ------- 1 4.0 0.0 3 14
+ 0.820742 0 2 tcp 1040 ------- 1 0.0 4.0 7 20
- 0.820742 0 2 tcp 1040 ------- 1 0.0 4.0 7 20
+ 0.820742 0 2 tcp 1040 ------- 1 0.0 4.0 8 21
r 0.824449 3 2 ack 40 ------- 1 4.0 0.0 4 15
+ 0.824449 2 0 ack 40 ------- 1 4.0 0.0 4 15
- 0.824449 2 0 ack 40 ------- 1 4.0 0.0 4 15
- 0.824902 0 2 tcp 1040 ------- 1 0.0 4.0 8 21
+ 0.82546 5 6 ack 40 ------- 1 5.0 1.0 1 18
- 0.82546 5 6 ack 40 ------- 1 5.0 1.0 1 18
r 0.827782 6 3 ack 40 ------- 1 4.0 0.0 5 16
+ 0.827782 3 2 ack 40 ------- 1 4.0 0.0 5 16
- 0.827782 3 2 ack 40 ------- 1 4.0 0.0 5 16
r 0.834609 2 0 ack 40 ------- 1 4.0 0.0 4 15
+ 0.834609 0 2 tcp 1040 ------- 1 0.0 4.0 9 22
- 0.834609 0 2 tcp 1040 ------- 1 0.0 4.0 9 22
+ 0.834609 0 2 tcp 1040 ------- 1 0.0 4.0 10 23
r 0.834902 0 2 tcp 1040 ------- 1 0.0 4.0 7 20
+ 0.834902 2 3 tcp 1040 ------- 1 0.0 4.0 7 20
- 0.834902 2 3 tcp 1040 ------- 1 0.0 4.0 7 20
r 0.838315 3 2 ack 40 ------- 1 4.0 0.0 5 16
+ 0.838315 2 0 ack 40 ------- 1 4.0 0.0 5 16
- 0.838315 2 0 ack 40 ------- 1 4.0 0.0 5 16
- 0.838769 0 2 tcp 1040 ------- 1 0.0 4.0 10 23
r 0.839062 0 2 tcp 1040 ------- 1 0.0 4.0 8 21
+ 0.839062 2 3 tcp 1040 ------- 1 0.0 4.0 8 21
+ 0.839327 5 6 ack 40 ------- 1 5.0 1.0 2 19
- 0.839327 5 6 ack 40 ------- 1 5.0 1.0 2 19
r 0.841649 6 3 ack 40 ------- 1 4.0 0.0 6 17
+ 0.841649 3 2 ack 40 ------- 1 4.0 0.0 6 17
- 0.841649 3 2 ack 40 ------- 1 4.0 0.0 6 17
r 0.848475 2 0 ack 40 ------- 1 4.0 0.0 5 16
+ 0.848475 0 2 tcp 1040 ------- 1 0.0 4.0 11 24
- 0.848475 0 2 tcp 1040 ------- 1 0.0 4.0 11 24
+ 0.848475 0 2 tcp 1040 ------- 1 0.0 4.0 12 25
r 0.848769 0 2 tcp 1040 ------- 1 0.0 4.0 9 22
+ 0.848769 2 3 tcp 1040 ------- 1 0.0 4.0 9 22
- 0.848769 2 3 tcp 1040 ------- 1 0.0 4.0 8 21
r 0.852182 3 2 ack 40 ------- 1 4.0 0.0 6 17
+ 0.852182 2 0 ack 40 ------- 1 4.0 0.0 6 17
- 0.852182 2 0 ack 40 ------- 1 4.0 0.0 6 17
- 0.852635 0 2 tcp 1040 ------- 1 0.0 4.0 12 25
r 0.852929 0 2 tcp 1040 ------- 1 0.0 4.0 10 23
+ 0.852929 2 3 tcp 1040 ------- 1 0.0 4.0 10 23
r 0.855515 6 3 ack 40 ------- 1 5.0 1.0 1 18
+ 0.855515 3 2 ack 40 ------- 1 5.0 1.0 1 18
- 0.855515 3 2 ack 40 ------- 1 5.0 1.0 1 18
r 0.858769 2 3 tcp 1040 ------- 1 0.0 4.0 7 20
h 0.858769 3 6 tcp 1040 ------- 1 0.0 4.0 7 20
r 0.862342 2 0 ack 40 ------- 1 4.0 0.0 6 17
+ 0.862342 0 2 tcp 1040 ------- 1 0.0 4.0 13 26
- 0.862342 0 2 tcp 1040 ------- 1 0.0 4.0 13 26
+ 0.862342 0 2 tcp 1040 ------- 1 0.0 4.0 14 27
r 0.862635 0 2 tcp 1040 ------- 1 0.0 4.0 11 24
+ 0.862635 2 3 tcp 1040 ------- 1 0.0 4.0 11 24
- 0.862635 2 3 tcp 1040 ------- 1 0.0 4.0 9 22
r 0.866049 3 2 ack 40 ------- 1 5.0 1.0 1 18
+ 0.866049 2 1 ack 40 ------- 1 5.0 1.0 1 18
- 0.866049 2 1 ack 40 ------- 1 5.0 1.0 1 18
- 0.866502 0 2 tcp 1040 ------- 1 0.0 4.0 14 27
r 0.866795 0 2 tcp 1040 ------- 1 0.0 4.0 12 25
+ 0.866795 2 3 tcp 1040 ------- 1 0.0 4.0 12 25
r 0.869382 6 3 ack 40 ------- 1 5.0 1.0 2 19
+ 0.869382 3 2 ack 40 ------- 1 5.0 1.0 2 19
- 0.869382 3 2 ack 40 ------- 1 5.0 1.0 2 19
r 0.872635 2 3 tcp 1040 ------- 1 0.0 4.0 8 21
h 0.872635 3 6 tcp 1040 ------- 1 0.0 4.0 8 21
r 0.876209 2 1 ack 40 ------- 1 5.0 1.0 1 18
+ 0.876209 1 2 tcp 1040 ------- 1 1.0 5.0 3 28
- 0.876209 1 2 tcp 1040 ------- 1 1.0 5.0 3 28
+ 0.876209 1 2 tcp 1040 ------- 1 1.0 5.0 4 29
r 0.876502 0 2 tcp 1040 ------- 1 0.0 4.0 13 26
+ 0.876502 2 3 tcp 1040 ------- 1 0.0 4.0 13 26
- 0.876502 2 3 tcp 1040 ------- 1 0.0 4.0 10 23
r 0.879915 3 2 ack 40 ------- 1 5.0 1.0 2 19
+ 0.879915 2 1 ack 40 ------- 1 5.0 1.0 2 19
- 0.879915 2 1 ack 40 ------- 1 5.0 1.0 2 19
- 0.880369 1 2 tcp 1040 ------- 1 1.0 5.0 4 29
r 0.880662 0 2 tcp 1040 ------- 1 0.0 4.0 14 27
+ 0.880662 2 3 tcp 1040 ------- 1 0.0 4.0 14 27
r 0.886502 2 3 tcp 1040 ------- 1 0.0 4.0 9 22
h 0.886502 3 6 tcp 1040 ------- 1 0.0 4.0 9 22
+ 0.888769 3 6 tcp 1040 ------- 1 0.0 4.0 7 20
- 0.888769 3 6 tcp 1040 ------- 1 0.0 4.0 7 20
r 0.890075 2 1 ack 40 ------- 1 5.0 1.0 2 19
+ 0.890075 1 2 tcp 1040 ------- 1 1.0 5.0 5 30
- 0.890075 1 2 tcp 1040 ------- 1 1.0 5.0 5 30
+ 0.890075 1 2 tcp 1040 ------- 1 1.0 5.0 6 31
r 0.890369 1 2 tcp 1040 ------- 1 1.0 5.0 3 28
+ 0.890369 2 3 tcp 1040 ------- 1 1.0 5.0 3 28
- 0.890369 2 3 tcp 1040 ------- 1 0.0 4.0 11 24
- 0.894235 1 2 tcp 1040 ------- 1 1.0 5.0 6 31
r 0.894529 1 2 tcp 1040 ------- 1 1.0 5.0 4 29
+ 0.894529 2 3 tcp 1040 ------- 1 1.0 5.0 4 29
r 0.900369 2 3 tcp 1040 ------- 1 0.0 4.0 10 23
h 0.900369 3 6 tcp 1040 ------- 1 0.0 4.0 10 23
+ 0.902635 3 6 tcp 1040 ------- 1 0.0 4.0 8 21
- 0.902635 3 6 tcp 1040 ------- 1 0.0 4.0 8 21
r 0.904235 1 2 tcp 1040 ------- 1 1.0 5.0 5 30
+ 0.904235 2 3 tcp 1040 ------- 1 1.0 5.0 5 30
- 0.904235 2 3 tcp 1040 ------- 1 0.0 4.0 12 25
r 0.908395 1 2 tcp 1040 ------- 1 1.0 5.0 6 31
+ 0.908395 2 3 tcp 1040 ------- 1 1.0 5.0 6 31
r 0.914235 2 3 tcp 1040 ------- 1 0.0 4.0 11 24
h 0.914235 3 6 tcp 1040 ------- 1 0.0 4.0 11 24
+ 0.916502 3 6 tcp 1040 ------- 1 0.0 4.0 9 22
- 0.916502 3 6 tcp 1040 ------- 1 0.0 4.0 9 22
- 0.918102 2 3 tcp 1040 ------- 1 0.0 4.0 13 26
r 0.919616 6 4 tcp 1040 ------- 1 0.0 4.0 7 20
h 0.919616 4 6 ack 40 ------- 1 4.0 0.0 7 32
r 0.928102 2 3 tcp 1040 ------- 1 0.0 4.0 12 25
h 0.928102 3 6 tcp 1040 ------- 1 0.0 4.0 12 25
+ 0.930369 3 6 tcp 1040 ------- 1 0.0 4.0 10 23
- 0.930369 3 6 tcp 1040 ------- 1 0.0 4.0 10 23
- 0.931969 2 3 tcp 1040 ------- 1 0.0 4.0 14 27
r 0.933482 6 4 tcp 1040 ------- 1 0.0 4.0 8 21
h 0.933482 4 6 ack 40 ------- 1 4.0 0.0 8 33
r 0.941969 2 3 tcp 1040 ------- 1 0.0 4.0 13 26
h 0.941969 3 6 tcp 1040 ------- 1 0.0 4.0 13 26
+ 0.944235 3 6 tcp 1040 ------- 1 0.0 4.0 11 24
- 0.944235 3 6 tcp 1040 ------- 1 0.0 4.0 11 24
- 0.945835 2 3 tcp 1040 ------- 1 1.0 5.0 3 28
r 0.947349 6 4 tcp 1040 ------- 1 0.0 4.0 9 22
h 0.947349 4 6 ack 40 ------- 1 4.0 0.0 9 34
+ 0.949616 4 6 ack 40 ------- 1 4.0 0.0 7 32
- 0.949616 4 6 ack 40 ------- 1 4.0 0.0 7 32
r 0.955835 2 3 tcp 1040 ------- 1 0.0 4.0 14 27
h 0.955835 3 6 tcp 1040 ------- 1 0.0 4.0 14 27
+ 0.958102 3 6 tcp 1040 ------- 1 0.0 4.0 12 25
- 0.958102 3 6 tcp 1040 ------- 1 0.0 4.0 12 25
- 0.959702 2 3 tcp 1040 ------- 1 1.0 5.0 4 29
r 0.961216 6 4 tcp 1040 ------- 1 0.0 4.0 10 23
h 0.961216 4 6 ack 40 ------- 1 4.0 0.0 10 35
+ 0.963482 4 6 ack 40 ------- 1 4.0 0.0 8 33
- 0.963482 4 6 ack 40 ------- 1 4.0 0.0 8 33
r 0.969702 2 3 tcp 1040 ------- 1 1.0 5.0 3 28
h 0.969702 3 6 tcp 1040 ------- 1 1.0 5.0 3 28
+ 0.971969 3 6 tcp 1040 ------- 1 0.0 4.0 13 26
- 0.971969 3 6 tcp 1040 ------- 1 0.0 4.0 13 26
- 0.973569 2 3 tcp 1040 ------- 1 1.0 5.0 5 30
r 0.975082 6 4 tcp 1040 ------- 1 0.0 4.0 11 24
h 0.975082 4 6 ack 40 ------- 1 4.0 0.0 11 36
+ 0.977349 4 6 ack 40 ------- 1 4.0 0.0 9 34
- 0.977349 4 6 ack 40 ------- 1 4.0 0.0 9 34
r 0.979671 6 3 ack 40 ------- 1 4.0 0.0 7 32
+ 0.979671 3 2 ack 40 ------- 1 4.0 0.0 7 32
- 0.979671 3 2 ack 40 ------- 1 4.0 0.0 7 32
r 0.983569 2 3 tcp 1040 ------- 1 1.0 5.0 4 29
h 0.983569 3 6 tcp 1040 ------- 1 1.0 5.0 4 29
+ 0.985835 3 6 tcp 1040 ------- 1 0.0 4.0 14 27
- 0.985835 3 6 tcp 1040 ------- 1 0.0 4.0 14 27
- 0.987435 2 3 tcp 1040 ------- 1 1.0 5.0 6 31
r 0.988949 6 4 tcp 1040 ------- 1 0.0 4.0 12 25
h 0.988949 4 6 ack 40 ------- 1 4.0 0.0 12 37
r 0.990204 3 2 ack 40 ------- 1 4.0 0.0 7 32
+ 0.990204 2 0 ack 40 ------- 1 4.0 0.0 7 32
- 0.990204 2 0 ack 40 ------- 1 4.0 0.0 7 32
+ 0.991216 4 6 ack 40 ------- 1 4.0 0.0 10 35
- 0.991216 4 6 ack 40 ------- 1 4.0 0.0 10 35
r 0.993538 6 3 ack 40 ------- 1 4.0 0.0 8 33
+ 0.993538 3 2 ack 40 ------- 1 4.0 0.0 8 33
- 0.993538 3 2 ack 40 ------- 1 4.0 0.0 8 33
r 0.997435 2 3 tcp 1040 ------- 1 1.0 5.0 5 30
h 0.997435 3 6 tcp 1040 ------- 1 1.0 5.0 5 30
+ 0.999702 3 6 tcp 1040 ------- 1 1.0 5.0 3 28
- 0.999702 3 6 tcp 1040 ------- 1 1.0 5.0 3 28
r 1.000364 2 0 ack 40 ------- 1 4.0 0.0 7 32
+ 1.000364 0 2 tcp 1040 ------- 1 0.0 4.0 15 38
- 1.000364 0 2 tcp 1040 ------- 1 0.0 4.0 15 38
+ 1.000364 0 2 tcp 1040 ------- 1 0.0 4.0 16 39
r 1.002816 6 4 tcp 1040 ------- 1 0.0 4.0 13 26
h 1.002816 4 6 ack 40 ------- 1 4.0 0.0 13 40
r 1.004071 3 2 ack 40 ------- 1 4.0 0.0 8 33
+ 1.004071 2 0 ack 40 ------- 1 4.0 0.0 8 33
- 1.004071 2 0 ack 40 ------- 1 4.0 0.0 8 33
- 1.004524 0 2 tcp 1040 ------- 1 0.0 4.0 16 39
+ 1.005082 4 6 ack 40 ------- 1 4.0 0.0 11 36
- 1.005082 4 6 ack 40 ------- 1 4.0 0.0 11 36
r 1.007404 6 3 ack 40 ------- 1 4.0 0.0 9 34
+ 1.007404 3 2 ack 40 ------- 1 4.0 0.0 9 34
- 1.007404 3 2 ack 40 ------- 1 4.0 0.0 9 34
r 1.011302 2 3 tcp 1040 ------- 1 1.0 5.0 6 31
h 1.011302 3 6 tcp 1040 ------- 1 1.0 5.0 6 31
+ 1.013569 3 6 tcp 1040 ------- 1 1.0 5.0 4 29
- 1.013569 3 6 tcp 1040 ------- 1 1.0 5.0 4 29
r 1.014231 2 0 ack 40 ------- 1 4.0 0.0 8 33
+ 1.014231 0 2 tcp 1040 ------- 1 0.0 4.0 17 41
- 1.014231 0 2 tcp 1040 ------- 1 0.0 4.0 17 41
+ 1.014231 0 2 tcp 1040 ------- 1 0.0 4.0 18 42
r 1.014524 0 2 tcp 1040 ------- 1 0.0 4.0 15 38
+ 1.014524 2 3 tcp 1040 ------- 1 0.0 4.0 15 38
- 1.014524 2 3 tcp 1040 ------- 1 0.0 4.0 15 38
r 1.016682 6 4 tcp 1040 ------- 1 0.0 4.0 14 27
h 1.016682 4 6 ack 40 ------- 1 4.0 0.0 14 43
r 1.017938 3 2 ack 40 ------- 1 4.0 0.0 9 34
+ 1.017938 2 0 ack 40 ------- 1 4.0 0.0 9 34
- 1.017938 2 0 ack 40 ------- 1 4.0 0.0 9 34
- 1.018391 0 2 tcp 1040 ------- 1 0.0 4.0 18 42
r 1.018684 0 2 tcp 1040 ------- 1 0.0 4.0 16 39
+ 1.018684 2 3 tcp 1040 ------- 1 0.0 4.0 16 39
+ 1.018949 4 6 ack 40 ------- 1 4.0 0.0 12 37
- 1.018949 4 6 ack 40 ------- 1 4.0 0.0 12 37
r 1.021271 6 3 ack 40 ------- 1 4.0 0.0 10 35
+ 1.021271 3 2 ack 40 ------- 1 4.0 0.0 10 35
- 1.021271 3 2 ack 40 ------- 1 4.0 0.0 10 35
+ 1.027435 3 6 tcp 1040 ------- 1 1.0 5.0 5 30
- 1.027435 3 6 tcp 1040 ------- 1 1.0 5.0 5 30
r 1.028098 2 0 ack 40 ------- 1 4.0 0.0 9 34
+ 1.028098 0 2 tcp 1040 ------- 1 0.0 4.0 19 44
- 1.028098 0 2 tcp 1040 ------- 1 0.0 4.0 19 44
+ 1.028098 0 2 tcp 1040 ------- 1 0.0 4.0 20 45
r 1.028391 0 2 tcp 1040 ------- 1 0.0 4.0 17 41
+ 1.028391 2 3 tcp 1040 ------- 1 0.0 4.0 17 41
- 1.028391 2 3 tcp 1040 ------- 1 0.0 4.0 16 39
r 1.030549 6 5 tcp 1040 ------- 1 1.0 5.0 3 28
h 1.030549 5 6 ack 40 ------- 1 5.0 1.0 3 46
r 1.031804 3 2 ack 40 ------- 1 4.0 0.0 10 35
+ 1.031804 2 0 ack 40 ------- 1 4.0 0.0 10 35
- 1.031804 2 0 ack 40 ------- 1 4.0 0.0 10 35
- 1.032258 0 2 tcp 1040 ------- 1 0.0 4.0 20 45
r 1.032551 0 2 tcp 1040 ------- 1 0.0 4.0 18 42
+ 1.032551 2 3 tcp 1040 ------- 1 0.0 4.0 18 42
+ 1.032816 4 6 ack 40 ------- 1 4.0 0.0 13 40
- 1.032816 4 6 ack 40 ------- 1 4.0 0.0 13 40
r 1.035138 6 3 ack 40 ------- 1 4.0 0.0 11 36
+ 1.035138 3 2 ack 40 ------- 1 4.0 0.0 11 36
- 1.035138 3 2 ack 40 ------- 1 4.0 0.0 11 36
r 1.038391 2 3 tcp 1040 ------- 1 0.0 4.0 15 38
h 1.038391 3 6 tcp 1040 ------- 1 0.0 4.0 15 38
+ 1.041302 3 6 tcp 1040 ------- 1 1.0 5.0 6 31
- 1.041302 3 6 tcp 1040 ------- 1 1.0 5.0 6 31
r 1.041964 2 0 ack 40 ------- 1 4.0 0.0 10 35
+ 1.041964 0 2 tcp 1040 ------- 1 0.0 4.0 21 47
- 1.041964 0 2 tcp 1040 ------- 1 0.0 4.0 21 47
+ 1.041964 0 2 tcp 1040 ------- 1 0.0 4.0 22 48
r 1.042258 0 2 tcp 1040 ------- 1 0.0 4.0 19 44
+ 1.042258 2 3 tcp 1040 ------- 1 0.0 4.0 19 44
- 1.042258 2 3 tcp 1040 ------- 1 0.0 4.0 17 41
r 1.044416 6 5 tcp 1040 ------- 1 1.0 5.0 4 29
h 1.044416 5 6 ack 40 ------- 1 5.0 1.0 4 49
r 1.045671 3 2 ack 40 ------- 1 4.0 0.0 11 36
+ 1.045671 2 0 ack 40 ------- 1 4.0 0.0 11 36
- 1.045671 2 0 ack 40 ------- 1 4.0 0.0 11 36
- 1.046124 0 2 tcp 1040 ------- 1 0.0 4.0 22 48
r 1.046418 0 2 tcp 1040 ------- 1 0.0 4.0 20 45
+ 1.046418 2 3 tcp 1040 ------- 1 0.0 4.0 20 45
+ 1.046682 4 6 ack 40 ------- 1 4.0 0.0 14 43
- 1.046682 4 6 ack 40 ------- 1 4.0 0.0 14 43
r 1.049004 6 3 ack 40 ------- 1 4.0 0.0 12 37
+ 1.049004 3 2 ack 40 ------- 1 4.0 0.0 12 37
- 1.049004 3 2 ack 40 ------- 1 4.0 0.0 12 37
r 1.052258 2 3 tcp 1040 ------- 1 0.0 4.0 16 39
h 1.052258 3 6 tcp 1040 ------- 1 0.0 4.0 16 39
r 1.055831 2 0 ack 40 ------- 1 4.0 0.0 11 36
+ 1.055831 0 2 tcp 1040 ------- 1 0.0 4.0 23 50
- 1.055831 0 2 tcp 1040 ------- 1 0.0 4.0 23 50
+ 1.055831 0 2 tcp 1040 ------- 1 0.0 4.0 24 51
r 1.056124 0 2 tcp 1040 ------- 1 0.0 4.0 21 47
+ 1.056124 2 3 tcp 1040 ------- 1 0.0 4.0 21 47
- 1.056124 2 3 tcp 1040 ------- 1 0.0 4.0 18 42
r 1.058282 6 5 tcp 1040 ------- 1 1.0 5.0 5 30
h 1.058282 5 6 ack 40 ------- 1 5.0 1.0 5 52
r 1.059538 3 2 ack 40 ------- 1 4.0 0.0 12 37
+ 1.059538 2 0 ack 40 ------- 1 4.0 0.0 12 37
- 1.059538 2 0 ack 40 ------- 1 4.0 0.0 12 37
- 1.059991 0 2 tcp 1040 ------- 1 0.0 4.0 24 51
r 1.060284 0 2 tcp 1040 ------- 1 0.0 4.0 22 48
+ 1.060284 2 3 tcp 1040 ------- 1 0.0 4.0 22 48
+ 1.060549 5 6 ack 40 ------- 1 5.0 1.0 3 46
- 1.060549 5 6 ack 40 ------- 1 5.0 1.0 3 46
r 1.062871 6 3 ack 40 ------- 1 4.0 0.0 13 40
+ 1.062871 3 2 ack 40 ------- 1 4.0 0.0 13 40
- 1.062871 3 2 ack 40 ------- 1 4.0 0.0 13 40
r 1.066124 2 3 tcp 1040 ------- 1 0.0 4.0 17 41
h 1.066124 3 6 tcp 1040 ------- 1 0.0 4.0 17 41
+ 1.068391 3 6 tcp 1040 ------- 1 0.0 4.0 15 38
- 1.068391 3 6 tcp 1040 ------- 1 0.0 4.0 15 38
r 1.069698 2 0 ack 40 ------- 1 4.0 0.0 12 37
+ 1.069698 0 2 tcp 1040 ------- 1 0.0 4.0 25 53
- 1.069698 0 2 tcp 1040 ------- 1 0.0 4.0 25 53
+ 1.069698 0 2 tcp 1040 ------- 1 0.0 4.0 26 54
r 1.069991 0 2 tcp 1040 ------- 1 0.0 4.0 23 50
+ 1.069991 2 3 tcp 1040 ------- 1 0.0 4.0 23 50
- 1.069991 2 3 tcp 1040 ------- 1 0.0 4.0 19 44
r 1.072149 6 5 tcp 1040 ------- 1 1.0 5.0 6 31
h 1.072149 5 6 ack 40 ------- 1 5.0 1.0 6 55
r 1.073404 3 2 ack 40 ------- 1 4.0 0.0 13 40
+ 1.073404 2 0 ack 40 ------- 1 4.0 0.0 13 40
- 1.073404 2 0 ack 40 ------- 1 4.0 0.0 13 40
- 1.073858 0 2 tcp 1040 ------- 1 0.0 4.0 26 54
r 1.074151 0 2 tcp 1040 ------- 1 0.0 4.0 24 51
+ 1.074151 2 3 tcp 1040 ------- 1 0.0 4.0 24 51
+ 1.074416 5 6 ack 40 ------- 1 5.0 1.0 4 49
- 1.074416 5 6 ack 40 ------- 1 5.0 1.0 4 49
r 1.076738 6 3 ack 40 ------- 1 4.0 0.0 14 43
+ 1.076738 3 2 ack 40 ------- 1 4.0 0.0 14 43
- 1.076738 3 2 ack 40 ------- 1 4.0 0.0 14 43
r 1.079991 2 3 tcp 1040 ------- 1 0.0 4.0 18 42
h 1.079991 3 6 tcp 1040 ------- 1 0.0 4.0 18 42
+ 1.082258 3 6 tcp 1040 ------- 1 0.0 4.0 16 39
- 1.082258 3 6 tcp 1040 ------- 1 0.0 4.0 16 39
r 1.083564 2 0 ack 40 ------- 1 4.0 0.0 13 40
+ 1.083564 0 2 tcp 1040 ------- 1 0.0 4.0 27 56
- 1.083564 0 2 tcp 1040 ------- 1 0.0 4.0 27 56
+ 1.083564 0 2 tcp 1040 ------- 1 0.0 4.0 28 57
r 1.083858 0 2 tcp 1040 ------- 1 0.0 4.0 25 53
+ 1.083858 2 3 tcp 1040 ------- 1 0.0 4.0 25 53
- 1.083858 2 3 tcp 1040 ------- 1 0.0 4.0 20 45
r 1.087271 3 2 ack 40 ------- 1 4.0 0.0 14 43
+ 1.087271 2 0 ack 40 ------- 1 4.0 0.0 14 43
- 1.087271 2 0 ack 40 ------- 1 4.0 0.0 14 43
- 1.087724 0 2 tcp 1040 ------- 1 0.0 4.0 28 57
r 1.088018 0 2 tcp 1040 ------- 1 0.0 4.0 26 54
+ 1.088018 2 3 tcp 1040 ------- 1 0.0 4.0 26 54
+ 1.088282 5 6 ack 40 ------- 1 5.0 1.0 5 52
- 1.088282 5 6 ack 40 ------- 1 5.0 1.0 5 52
r 1.090604 6 3 ack 40 ------- 1 5.0 1.0 3 46
+ 1.090604 3 2 ack 40 ------- 1 5.0 1.0 3 46
- 1.090604 3 2 ack 40 ------- 1 5.0 1.0 3 46
r 1.093858 2 3 tcp 1040 ------- 1 0.0 4.0 19 44
h 1.093858 3 6 tcp 1040 ------- 1 0.0 4.0 19 44
+ 1.096124 3 6 tcp 1040 ------- 1 0.0 4.0 17 41
- 1.096124 3 6 tcp 1040 ------- 1 0.0 4.0 17 41
r 1.097431 2 0 ack 40 ------- 1 4.0 0.0 14 43
+ 1.097431 0 2 tcp 1040 ------- 1 0.0 4.0 29 58
- 1.097431 0 2 tcp 1040 ------- 1 0.0 4.0 29 58
+ 1.097431 0 2 tcp 1040 ------- 1 0.0 4.0 30 59
r 1.097724 0 2 tcp 1040 ------- 1 0.0 4.0 27 56
+ 1.097724 2 3 tcp 1040 ------- 1 0.0 4.0 27 56
- 1.097724 2 3 tcp 1040 ------- 1 0.0 4.0 21 47
r 1.099238 6 4 tcp 1040 ------- 1 0.0 4.0 15 38
h 1.099238 4 6 ack 40 ------- 1 4.0 0.0 15 60
r 1.101138 3 2 ack 40 ------- 1 5.0 1.0 3 46
+ 1.101138 2 1 ack 40 ------- 1 5.0 1.0 3 46
- 1.101138 2 1 ack 40 ------- 1 5.0 1.0 3 46
- 1.101591 0 2 tcp 1040 ------- 1 0.0 4.0 30 59
r 1.101884 0 2 tcp 1040 ------- 1 0.0 4.0 28 57
+ 1.101884 2 3 tcp 1040 ------- 1 0.0 4.0 28 57
+ 1.102149 5 6 ack 40 ------- 1 5.0 1.0 6 55
- 1.102149 5 6 ack 40 ------- 1 5.0 1.0 6 55
r 1.104471 6 3 ack 40 ------- 1 5.0 1.0 4 49
+ 1.104471 3 2 ack 40 ------- 1 5.0 1.0 4 49
- 1.104471 3 2 ack 40 ------- 1 5.0 1.0 4 49
r 1.107724 2 3 tcp 1040 ------- 1 0.0 4.0 20 45
h 1.107724 3 6 tcp 1040 ------- 1 0.0 4.0 20 45
+ 1.109991 3 6 tcp 1040 ------- 1 0.0 4.0 18 42
- 1.109991 3 6 tcp 1040 ------- 1 0.0 4.0 18 42
r 1.111298 2 1 ack 40 ------- 1 5.0 1.0 3 46
+ 1.111298 1 2 tcp 1040 ------- 1 1.0 5.0 7 61
- 1.111298 1 2 tcp 1040 ------- 1 1.0 5.0 7 61
+ 1.111298 1 2 tcp 1040 ------- 1 1.0 5.0 8 62
r 1.111591 0 2 tcp 1040 ------- 1 0.0 4.0 29 58
+ 1.111591 2 3 tcp 1040 ------- 1 0.0 4.0 29 58
- 1.111591 2 3 tcp 1040 ------- 1 0.0 4.0 22 48
r 1.113105 6 4 tcp 1040 ------- 1 0.0 4.0 16 39
h 1.113105 4 6 ack 40 ------- 1 4.0 0.0 16 63
r 1.115004 3 2 ack 40 ------- 1 5.0 1.0 4 49
+ 1.115004 2 1 ack 40 ------- 1 5.0 1.0 4 49
- 1.115004 2 1 ack 40 ------- 1 5.0 1.0 4 49
- 1.115458 1 2 tcp 1040 ------- 1 1.0 5.0 8 62
r 1.115751 0 2 tcp 1040 ------- 1 0.0 4.0 30 59
+ 1.115751 2 3 tcp 1040 ------- 1 0.0 4.0 30 59
r 1.118338 6 3 ack 40 ------- 1 5.0 1.0 5 52
+ 1.118338 3 2 ack 40 ------- 1 5.0 1.0 5 52
- 1.118338 3 2 ack 40 ------- 1 5.0 1.0 5 52
r 1.121591 2 3 tcp 1040 ------- 1 0.0 4.0 21 47
h 1.121591 3 6 tcp 1040 ------- 1 0.0 4.0 21 47
+ 1.123858 3 6 tcp 1040 ------- 1 0.0 4.0 19 44
- 1.123858 3 6 tcp 1040 ------- 1 0.0 4.0 19 44
r 1.125164 2 1 ack 40 ------- 1 5.0 1.0 4 49
+ 1.125164 1 2 tcp 1040 ------- 1 1.0 5.0 9 64
- 1.125164 1 2 tcp 1040 ------- 1 1.0 5.0 9 64
+ 1.125164 1 2 tcp 1040 ------- 1 1.0 5.0 10 65
r 1.125458 1 2 tcp 1040 ------- 1 1.0 5.0 7 61
+ 1.125458 2 3 tcp 1040 ------- 1 1.0 5.0 7 61
- 1.125458 2 3 tcp 1040 ------- 1 0.0 4.0 23 50
r 1.126971 6 4 tcp 1040 ------- 1 0.0 4.0 17 41
h 1.126971 4 6 ack 40 ------- 1 4.0 0.0 17 66
r 1.128871 3 2 ack 40 ------- 1 5.0 1.0 5 52
+ 1.128871 2 1 ack 40 ------- 1 5.0 1.0 5 52
- 1.128871 2 1 ack 40 ------- 1 5.0 1.0 5 52
+ 1.129238 4 6 ack 40 ------- 1 4.0 0.0 15 60
- 1.129238 4 6 ack 40 ------- 1 4.0 0.0 15 60
- 1.129324 1 2 tcp 1040 ------- 1 1.0 5.0 10 65
r 1.129618 1 2 tcp 1040 ------- 1 1.0 5.0 8 62
+ 1.129618 2 3 tcp 1040 ------- 1 1.0 5.0 8 62
r 1.132204 6 3 ack 40 ------- 1 5.0 1.0 6 55
+ 1.132204 3 2 ack 40 ------- 1 5.0 1.0 6 55
- 1.132204 3 2 ack 40 ------- 1 5.0 1.0 6 55
r 1.135458 2 3 tcp 1040 ------- 1 0.0 4.0 22 48
h 1.135458 3 6 tcp 1040 ------- 1 0.0 4.0 22 48
+ 1.137724 3 6 tcp 1040 ------- 1 0.0 4.0 20 45
- 1.137724 3 6 tcp 1040 ------- 1 0.0 4.0 20 45
r 1.139031 2 1 ack 40 ------- 1 5.0 1.0 5 52
+ 1.139031 1 2 tcp 1040 ------- 1 1.0 5.0 11 67
- 1.139031 1 2 tcp 1040 ------- 1 1.0 5.0 11 67
+ 1.139031 1 2 tcp 1040 ------- 1 1.0 5.0 12 68
r 1.139324 1 2 tcp 1040 ------- 1 1.0 5.0 9 64
+ 1.139324 2 3 tcp 1040 ------- 1 1.0 5.0 9 64
- 1.139324 2 3 tcp 1040 ------- 1 0.0 4.0 24 51
r 1.140838 6 4 tcp 1040 ------- 1 0.0 4.0 18 42
h 1.140838 4 6 ack 40 ------- 1 4.0 0.0 18 69
r 1.142738 3 2 ack 40 ------- 1 5.0 1.0 6 55
+ 1.142738 2 1 ack 40 ------- 1 5.0 1.0 6 55
- 1.142738 2 1 ack 40 ------- 1 5.0 1.0 6 55
+ 1.143105 4 6 ack 40 ------- 1 4.0 0.0 16 63
- 1.143105 4 6 ack 40 ------- 1 4.0 0.0 16 63
- 1.143191 1 2 tcp 1040 ------- 1 1.0 5.0 12 68
r 1.143484 1 2 tcp 1040 ------- 1 1.0 5.0 10 65
+ 1.143484 2 3 tcp 1040 ------- 1 1.0 5.0 10 65
r 1.149324 2 3 tcp 1040 ------- 1 0.0 4.0 23 50
h 1.149324 3 6 tcp 1040 ------- 1 0.0 4.0 23 50
+ 1.151591 3 6 tcp 1040 ------- 1 0.0 4.0 21 47
- 1.151591 3 6 tcp 1040 ------- 1 0.0 4.0 21 47
r 1.152898 2 1 ack 40 ------- 1 5.0 1.0 6 55
+ 1.152898 1 2 tcp 1040 ------- 1 1.0 5.0 13 70
- 1.152898 1 2 tcp 1040 ------- 1 1.0 5.0 13 70
+ 1.152898 1 2 tcp 1040 ------- 1 1.0 5.0 14 71
r 1.153191 1 2 tcp 1040 ------- 1 1.0 5.0 11 67
+ 1.153191 2 3 tcp 1040 ------- 1 1.0 5.0 11 67
- 1.153191 2 3 tcp 1040 ------- 1 0.0 4.0 25 53
r 1.154705 6 4 tcp 1040 ------- 1 0.0 4.0 19 44
h 1.154705 4 6 ack 40 ------- 1 4.0 0.0 19 72
+ 1.156971 4 6 ack 40 ------- 1 4.0 0.0 17 66
- 1.156971 4 6 ack 40 ------- 1 4.0 0.0 17 66
- 1.157058 1 2 tcp 1040 ------- 1 1.0 5.0 14 71
r 1.157351 1 2 tcp 1040 ------- 1 1.0 5.0 12 68
+ 1.157351 2 3 tcp 1040 ------- 1 1.0 5.0 12 68
r 1.159293 6 3 ack 40 ------- 1 4.0 0.0 15 60
+ 1.159293 3 2 ack 40 ------- 1 4.0 0.0 15 60
- 1.159293 3 2 ack 40 ------- 1 4.0 0.0 15 60
r 1.163191 2 3 tcp 1040 ------- 1 0.0 4.0 24 51
h 1.163191 3 6 tcp 1040 ------- 1 0.0 4.0 24 51
+ 1.165458 3 6 tcp 1040 ------- 1 0.0 4.0 22 48
- 1.165458 3 6 tcp 1040 ------- 1 0.0 4.0 22 48
r 1.167058 1 2 tcp 1040 ------- 1 1.0 5.0 13 70
+ 1.167058 2 3 tcp 1040 ------- 1 1.0 5.0 13 70
- 1.167058 2 3 tcp 1040 ------- 1 0.0 4.0 26 54
r 1.168571 6 4 tcp 1040 ------- 1 0.0 4.0 20 45
h 1.168571 4 6 ack 40 ------- 1 4.0 0.0 20 73
r 1.169827 3 2 ack 40 ------- 1 4.0 0.0 15 60
+ 1.169827 2 0 ack 40 ------- 1 4.0 0.0 15 60
- 1.169827 2 0 ack 40 ------- 1 4.0 0.0 15 60
+ 1.170838 4 6 ack 40 ------- 1 4.0 0.0 18 69
- 1.170838 4 6 ack 40 ------- 1 4.0 0.0 18 69
r 1.171218 1 2 tcp 1040 ------- 1 1.0 5.0 14 71
+ 1.171218 2 3 tcp 1040 ------- 1 1.0 5.0 14 71
r 1.17316 6 3 ack 40 ------- 1 4.0 0.0 16 63
+ 1.17316 3 2 ack 40 ------- 1 4.0 0.0 16 63
- 1.17316 3 2 ack 40 ------- 1 4.0 0.0 16 63
r 1.177058 2 3 tcp 1040 ------- 1 0.0 4.0 25 53
h 1.177058 3 6 tcp 1040 ------- 1 0.0 4.0 25 53
+ 1.179324 3 6 tcp 1040 ------- 1 0.0 4.0 23 50
- 1.179324 3 6 tcp 1040 ------- 1 0.0 4.0 23 50
r 1.179987 2 0 ack 40 ------- 1 4.0 0.0 15 60
+ 1.179987 0 2 tcp 1040 ------- 1 0.0 4.0 31 74
- 1.179987 0 2 tcp 1040 ------- 1 0.0 4.0 31 74
+ 1.179987 0 2 tcp 1040 ------- 1 0.0 4.0 32 75
- 1.180924 2 3 tcp 1040 ------- 1 0.0 4.0 27 56
r 1.182438 6 4 tcp 1040 ------- 1 0.0 4.0 21 47
h 1.182438 4 6 ack 40 ------- 1 4.0 0.0 21 76
r 1.183693 3 2 ack 40 ------- 1 4.0 0.0 16 63
+ 1.183693 2 0 ack 40 ------- 1 4.0 0.0 16 63
- 1.183693 2 0 ack 40 ------- 1 4.0 0.0 16 63
- 1.184147 0 2 tcp 1040 ------- 1 0.0 4.0 32 75
+ 1.184705 4 6 ack 40 ------- 1 4.0 0.0 19 72
- 1.184705 4 6 ack 40 ------- 1 4.0 0.0 19 72
r 1.187027 6 3 ack 40 ------- 1 4.0 0.0 17 66
+ 1.187027 3 2 ack 40 ------- 1 4.0 0.0 17 66
- 1.187027 3 2 ack 40 ------- 1 4.0 0.0 17 66
r 1.190924 2 3 tcp 1040 ------- 1 0.0 4.0 26 54
h 1.190924 3 6 tcp 1040 ------- 1 0.0 4.0 26 54
+ 1.193191 3 6 tcp 1040 ------- 1 0.0 4.0 24 51
- 1.193191 3 6 tcp 1040 ------- 1 0.0 4.0 24 51
r 1.193853 2 0 ack 40 ------- 1 4.0 0.0 16 63
+ 1.193853 0 2 tcp 1040 ------- 1 0.0 4.0 33 77
- 1.193853 0 2 tcp 1040 ------- 1 0.0 4.0 33 77
+ 1.193853 0 2 tcp 1040 ------- 1 0.0 4.0 34 78
r 1.194147 0 2 tcp 1040 ------- 1 0.0 4.0 31 74
+ 1.194147 2 3 tcp 1040 ------- 1 0.0 4.0 31 74
- 1.194791 2 3 tcp 1040 ------- 1 0.0 4.0 28 57
r 1.196305 6 4 tcp 1040 ------- 1 0.0 4.0 22 48
h 1.196305 4 6 ack 40 ------- 1 4.0 0.0 22 79