+ 0.1 0 1 cbr 500 ------- 0 0.0 2.0 0 0
- 0.1 0 1 cbr 500 ------- 0 0.0 2.0 0 0
+ 0.105 0 1 cbr 500 ------- 0 0.0 2.0 1 1
- 0.108 0 1 cbr 500 ------- 0 0.0 2.0 1 1
+ 0.11 0 1 cbr 500 ------- 0 0.0 2.0 2 2
+ 0.115 0 1 cbr 500 ------- 0 0.0 2.0 3 3
- 0.116 0 1 cbr 500 ------- 0 0.0 2.0 2 2
r 0.118 0 1 cbr 500 ------- 0 0.0 2.0 0 0
+ 0.118 1 2 cbr 500 ------- 0 0.0 2.0 0 0
- 0.118 1 2 cbr 500 ------- 0 0.0 2.0 0 0
+ 0.12 0 1 cbr 500 ------- 0 0.0 2.0 4 4
- 0.124 0 1 cbr 500 ------- 0 0.0 2.0 3 3
+ 0.125 0 1 cbr 500 ------- 0 0.0 2.0 5 5
r 0.126 0 1 cbr 500 ------- 0 0.0 2.0 1 1
+ 0.126 1 2 cbr 500 ------- 0 0.0 2.0 1 1
+ 0.13 0 1 cbr 500 ------- 0 0.0 2.0 6 6
- 0.131333 1 2 cbr 500 ------- 0 0.0 2.0 1 1
- 0.132 0 1 cbr 500 ------- 0 0.0 2.0 4 4
r 0.134 0 1 cbr 500 ------- 0 0.0 2.0 2 2
+ 0.134 1 2 cbr 500 ------- 0 0.0 2.0 2 2
+ 0.135 0 1 cbr 500 ------- 0 0.0 2.0 7 7
- 0.14 0 1 cbr 500 ------- 0 0.0 2.0 5 5
+ 0.14 0 1 cbr 500 ------- 0 0.0 2.0 8 8
r 0.142 0 1 cbr 500 ------- 0 0.0 2.0 3 3
+ 0.142 1 2 cbr 500 ------- 0 0.0 2.0 3 3
- 0.144667 1 2 cbr 500 ------- 0 0.0 2.0 2 2
+ 0.145 0 1 cbr 500 ------- 0 0.0 2.0 9 9
- 0.148 0 1 cbr 500 ------- 0 0.0 2.0 6 6
r 0.15 0 1 cbr 500 ------- 0 0.0 2.0 4 4
+ 0.15 1 2 cbr 500 ------- 0 0.0 2.0 4 4
+ 0.15 0 1 cbr 500 ------- 0 0.0 2.0 10 10
r 0.151333 1 2 cbr 500 ------- 0 0.0 2.0 0 0
+ 0.155 0 1 cbr 500 ------- 0 0.0 2.0 11 11
- 0.156 0 1 cbr 500 ------- 0 0.0 2.0 7 7
- 0.158 1 2 cbr 500 ------- 0 0.0 2.0 3 3
r 0.158 0 1 cbr 500 ------- 0 0.0 2.0 5 5
+ 0.158 1 2 cbr 500 ------- 0 0.0 2.0 5 5
+ 0.16 0 1 cbr 500 ------- 0 0.0 2.0 12 12
- 0.164 0 1 cbr 500 ------- 0 0.0 2.0 8 8
r 0.164667 1 2 cbr 500 ------- 0 0.0 2.0 1 1
+ 0.165 0 1 cbr 500 ------- 0 0.0 2.0 13 13
r 0.166 0 1 cbr 500 ------- 0 0.0 2.0 6 6
+ 0.166 1 2 cbr 500 ------- 0 0.0 2.0 6 6
+ 0.17 0 1 cbr 500 ------- 0 0.0 2.0 14 14
- 0.171333 1 2 cbr 500 ------- 0 0.0 2.0 4 4
- 0.172 0 1 cbr 500 ------- 0 0.0 2.0 9 9
r 0.174 0 1 cbr 500 ------- 0 0.0 2.0 7 7
+ 0.174 1 2 cbr 500 ------- 0 0.0 2.0 7 7
+ 0.175 0 1 cbr 500 ------- 0 0.0 2.0 15 15
r 0.178 1 2 cbr 500 ------- 0 0.0 2.0 2 2
- 0.18 0 1 cbr 500 ------- 0 0.0 2.0 10 10
+ 0.18 0 1 cbr 500 ------- 0 0.0 2.0 16 16
r 0.182 0 1 cbr 500 ------- 0 0.0 2.0 8 8
+ 0.182 1 2 cbr 500 ------- 0 0.0 2.0 8 8
- 0.184667 1 2 cbr 500 ------- 0 0.0 2.0 5 5
+ 0.185 0 1 cbr 500 ------- 0 0.0 2.0 17 17
- 0.188 0 1 cbr 500 ------- 0 0.0 2.0 11 11
r 0.19 0 1 cbr 500 ------- 0 0.0 2.0 9 9
+ 0.19 1 2 cbr 500 ------- 0 0.0 2.0 9 9
+ 0.19 0 1 cbr 500 ------- 0 0.0 2.0 18 18
r 0.191333 1 2 cbr 500 ------- 0 0.0 2.0 3 3
+ 0.195 0 1 cbr 500 ------- 0 0.0 2.0 19 19
- 0.196 0 1 cbr 500 ------- 0 0.0 2.0 12 12
- 0.198 1 2 cbr 500 ------- 0 0.0 2.0 6 6
r 0.198 0 1 cbr 500 ------- 0 0.0 2.0 10 10
+ 0.198 1 2 cbr 500 ------- 0 0.0 2.0 10 10
+ 0.2 0 1 cbr 500 ------- 0 0.0 2.0 20 20
- 0.204 0 1 cbr 500 ------- 0 0.0 2.0 13 13
r 0.204667 1 2 cbr 500 ------- 0 0.0 2.0 4 4
+ 0.205 0 1 cbr 500 ------- 0 0.0 2.0 21 21
r 0.206 0 1 cbr 500 ------- 0 0.0 2.0 11 11
+ 0.206 1 2 cbr 500 ------- 0 0.0 2.0 11 11
+ 0.21 0 1 cbr 500 ------- 0 0.0 2.0 22 22
- 0.211333 1 2 cbr 500 ------- 0 0.0 2.0 7 7
- 0.212 0 1 cbr 500 ------- 0 0.0 2.0 14 14
r 0.214 0 1 cbr 500 ------- 0 0.0 2.0 12 12
+ 0.214 1 2 cbr 500 ------- 0 0.0 2.0 12 12
+ 0.215 0 1 cbr 500 ------- 0 0.0 2.0 23 23
r 0.218 1 2 cbr 500 ------- 0 0.0 2.0 5 5
- 0.22 0 1 cbr 500 ------- 0 0.0 2.0 15 15
+ 0.22 0 1 cbr 500 ------- 0 0.0 2.0 24 24
r 0.222 0 1 cbr 500 ------- 0 0.0 2.0 13 13
+ 0.222 1 2 cbr 500 ------- 0 0.0 2.0 13 13
- 0.224667 1 2 cbr 500 ------- 0 0.0 2.0 8 8
+ 0.225 0 1 cbr 500 ------- 0 0.0 2.0 25 25
- 0.228 0 1 cbr 500 ------- 0 0.0 2.0 16 16
r 0.23 0 1 cbr 500 ------- 0 0.0 2.0 14 14
+ 0.23 1 2 cbr 500 ------- 0 0.0 2.0 14 14
+ 0.23 0 1 cbr 500 ------- 0 0.0 2.0 26 26
r 0.231333 1 2 cbr 500 ------- 0 0.0 2.0 6 6
+ 0.235 0 1 cbr 500 ------- 0 0.0 2.0 27 27
- 0.236 0 1 cbr 500 ------- 0 0.0 2.0 17 17
- 0.238 1 2 cbr 500 ------- 0 0.0 2.0 9 9
r 0.238 0 1 cbr 500 ------- 0 0.0 2.0 15 15
+ 0.238 1 2 cbr 500 ------- 0 0.0 2.0 15 15
+ 0.24 0 1 cbr 500 ------- 0 0.0 2.0 28 28
- 0.244 0 1 cbr 500 ------- 0 0.0 2.0 18 18
r 0.244667 1 2 cbr 500 ------- 0 0.0 2.0 7 7
+ 0.245 0 1 cbr 500 ------- 0 0.0 2.0 29 29
r 0.246 0 1 cbr 500 ------- 0 0.0 2.0 16 16
+ 0.246 1 2 cbr 500 ------- 0 0.0 2.0 16 16
+ 0.25 0 1 cbr 500 ------- 0 0.0 2.0 30 30
- 0.251333 1 2 cbr 500 ------- 0 0.0 2.0 10 10
- 0.252 0 1 cbr 500 ------- 0 0.0 2.0 19 19
r 0.254 0 1 cbr 500 ------- 0 0.0 2.0 17 17
+ 0.254 1 2 cbr 500 ------- 0 0.0 2.0 17 17
+ 0.255 0 1 cbr 500 ------- 0 0.0 2.0 31 31
r 0.258 1 2 cbr 500 ------- 0 0.0 2.0 8 8
- 0.26 0 1 cbr 500 ------- 0 0.0 2.0 20 20
+ 0.26 0 1 cbr 500 ------- 0 0.0 2.0 32 32
r 0.262 0 1 cbr 500 ------- 0 0.0 2.0 18 18
+ 0.262 1 2 cbr 500 ------- 0 0.0 2.0 18 18
- 0.264667 1 2 cbr 500 ------- 0 0.0 2.0 11 11
+ 0.265 0 1 cbr 500 ------- 0 0.0 2.0 33 33
- 0.268 0 1 cbr 500 ------- 0 0.0 2.0 21 21
r 0.27 0 1 cbr 500 ------- 0 0.0 2.0 19 19
+ 0.27 1 2 cbr 500 ------- 0 0.0 2.0 19 19
+ 0.27 0 1 cbr 500 ------- 0 0.0 2.0 34 34
r 0.271333 1 2 cbr 500 ------- 0 0.0 2.0 9 9
+ 0.275 0 1 cbr 500 ------- 0 0.0 2.0 35 35
- 0.276 0 1 cbr 500 ------- 0 0.0 2.0 22 22
- 0.278 1 2 cbr 500 ------- 0 0.0 2.0 12 12
r 0.278 0 1 cbr 500 ------- 0 0.0 2.0 20 20
+ 0.278 1 2 cbr 500 ------- 0 0.0 2.0 20 20
+ 0.28 0 1 cbr 500 ------- 0 0.0 2.0 36 36
- 0.284 0 1 cbr 500 ------- 0 0.0 2.0 23 23
r 0.284667 1 2 cbr 500 ------- 0 0.0 2.0 10 10
+ 0.285 0 1 cbr 500 ------- 0 0.0 2.0 37 37
r 0.286 0 1 cbr 500 ------- 0 0.0 2.0 21 21
+ 0.286 1 2 cbr 500 ------- 0 0.0 2.0 21 21
+ 0.29 0 1 cbr 500 ------- 0 0.0 2.0 38 38
- 0.291333 1 2 cbr 500 ------- 0 0.0 2.0 13 13
- 0.292 0 1 cbr 500 ------- 0 0.0 2.0 24 24
r 0.294 0 1 cbr 500 ------- 0 0.0 2.0 22 22
+ 0.294 1 2 cbr 500 ------- 0 0.0 2.0 22 22
+ 0.295 0 1 cbr 500 ------- 0 0.0 2.0 39 39
r 0.298 1 2 cbr 500 ------- 0 0.0 2.0 11 11
- 0.3 0 1 cbr 500 ------- 0 0.0 2.0 25 25
+ 0.3 0 1 cbr 500 ------- 0 0.0 2.0 40 40
r 0.302 0 1 cbr 500 ------- 0 0.0 2.0 23 23
+ 0.302 1 2 cbr 500 ------- 0 0.0 2.0 23 23
d 0.302 1 2 cbr 500 ------- 0 0.0 2.0 23 23
- 0.304667 1 2 cbr 500 ------- 0 0.0 2.0 14 14
+ 0.305 0 1 cbr 500 ------- 0 0.0 2.0 41 41
- 0.308 0 1 cbr 500 ------- 0 0.0 2.0 26 26
r 0.31 0 1 cbr 500 ------- 0 0.0 2.0 24 24
+ 0.31 1 2 cbr 500 ------- 0 0.0 2.0 24 24
+ 0.31 0 1 cbr 500 ------- 0 0.0 2.0 42 42
r 0.311333 1 2 cbr 500 ------- 0 0.0 2.0 12 12
+ 0.315 0 1 cbr 500 ------- 0 0.0 2.0 43 43
- 0.316 0 1 cbr 500 ------- 0 0.0 2.0 27 27
- 0.318 1 2 cbr 500 ------- 0 0.0 2.0 15 15
r 0.318 0 1 cbr 500 ------- 0 0.0 2.0 25 25
+ 0.318 1 2 cbr 500 ------- 0 0.0 2.0 25 25
+ 0.32 0 1 cbr 500 ------- 0 0.0 2.0 44 44
- 0.324 0 1 cbr 500 ------- 0 0.0 2.0 28 28
r 0.324667 1 2 cbr 500 ------- 0 0.0 2.0 13 13
+ 0.325 0 1 cbr 500 ------- 0 0.0 2.0 45 45
r 0.326 0 1 cbr 500 ------- 0 0.0 2.0 26 26
+ 0.326 1 2 cbr 500 ------- 0 0.0 2.0 26 26
d 0.326 1 2 cbr 500 ------- 0 0.0 2.0 26 26
+ 0.33 0 1 cbr 500 ------- 0 0.0 2.0 46 46
- 0.331333 1 2 cbr 500 ------- 0 0.0 2.0 16 16
- 0.332 0 1 cbr 500 ------- 0 0.0 2.0 29 29
r 0.334 0 1 cbr 500 ------- 0 0.0 2.0 27 27
+ 0.334 1 2 cbr 500 ------- 0 0.0 2.0 27 27
+ 0.335 0 1 cbr 500 ------- 0 0.0 2.0 47 47
r 0.338 1 2 cbr 500 ------- 0 0.0 2.0 14 14
- 0.34 0 1 cbr 500 ------- 0 0.0 2.0 30 30
+ 0.34 0 1 cbr 500 ------- 0 0.0 2.0 48 48
r 0.342 0 1 cbr 500 ------- 0 0.0 2.0 28 28
+ 0.342 1 2 cbr 500 ------- 0 0.0 2.0 28 28
d 0.342 1 2 cbr 500 ------- 0 0.0 2.0 28 28
- 0.344667 1 2 cbr 500 ------- 0 0.0 2.0 17 17
+ 0.345 0 1 cbr 500 ------- 0 0.0 2.0 49 49
- 0.348 0 1 cbr 500 ------- 0 0.0 2.0 31 31
r 0.35 0 1 cbr 500 ------- 0 0.0 2.0 29 29
+ 0.35 1 2 cbr 500 ------- 0 0.0 2.0 29 29
+ 0.35 0 1 cbr 500 ------- 0 0.0 2.0 50 50
r 0.351333 1 2 cbr 500 ------- 0 0.0 2.0 15 15
+ 0.355 0 1 cbr 500 ------- 0 0.0 2.0 51 51
- 0.356 0 1 cbr 500 ------- 0 0.0 2.0 32 32
- 0.358 1 2 cbr 500 ------- 0 0.0 2.0 18 18
r 0.358 0 1 cbr 500 ------- 0 0.0 2.0 30 30
+ 0.358 1 2 cbr 500 ------- 0 0.0 2.0 30 30
+ 0.36 0 1 cbr 500 ------- 0 0.0 2.0 52 52
- 0.364 0 1 cbr 500 ------- 0 0.0 2.0 33 33
r 0.364667 1 2 cbr 500 ------- 0 0.0 2.0 16 16
+ 0.365 0 1 cbr 500 ------- 0 0.0 2.0 53 53
r 0.366 0 1 cbr 500 ------- 0 0.0 2.0 31 31
+ 0.366 1 2 cbr 500 ------- 0 0.0 2.0 31 31
d 0.366 1 2 cbr 500 ------- 0 0.0 2.0 31 31
+ 0.37 0 1 cbr 500 ------- 0 0.0 2.0 54 54
- 0.371333 1 2 cbr 500 ------- 0 0.0 2.0 19 19
- 0.372 0 1 cbr 500 ------- 0 0.0 2.0 34 34
r 0.374 0 1 cbr 500 ------- 0 0.0 2.0 32 32
+ 0.374 1 2 cbr 500 ------- 0 0.0 2.0 32 32
+ 0.375 0 1 cbr 500 ------- 0 0.0 2.0 55 55
r 0.378 1 2 cbr 500 ------- 0 0.0 2.0 17 17
- 0.38 0 1 cbr 500 ------- 0 0.0 2.0 35 35
+ 0.38 0 1 cbr 500 ------- 0 0.0 2.0 56 56
r 0.382 0 1 cbr 500 ------- 0 0.0 2.0 33 33
+ 0.382 1 2 cbr 500 ------- 0 0.0 2.0 33 33
d 0.382 1 2 cbr 500 ------- 0 0.0 2.0 33 33
- 0.384667 1 2 cbr 500 ------- 0 0.0 2.0 20 20
+ 0.385 0 1 cbr 500 ------- 0 0.0 2.0 57 57
- 0.388 0 1 cbr 500 ------- 0 0.0 2.0 36 36
r 0.39 0 1 cbr 500 ------- 0 0.0 2.0 34 34
+ 0.39 1 2 cbr 500 ------- 0 0.0 2.0 34 34
+ 0.39 0 1 cbr 500 ------- 0 0.0 2.0 58 58
r 0.391333 1 2 cbr 500 ------- 0 0.0 2.0 18 18
+ 0.395 0 1 cbr 500 ------- 0 0.0 2.0 59 59
- 0.396 0 1 cbr 500 ------- 0 0.0 2.0 37 37
- 0.398 1 2 cbr 500 ------- 0 0.0 2.0 21 21
r 0.398 0 1 cbr 500 ------- 0 0.0 2.0 35 35
+ 0.398 1 2 cbr 500 ------- 0 0.0 2.0 35 35
+ 0.4 0 1 cbr 500 ------- 0 0.0 2.0 60 60
- 0.404 0 1 cbr 500 ------- 0 0.0 2.0 38 38
r 0.404667 1 2 cbr 500 ------- 0 0.0 2.0 19 19
+ 0.405 0 1 cbr 500 ------- 0 0.0 2.0 61 61
r 0.406 0 1 cbr 500 ------- 0 0.0 2.0 36 36
+ 0.406 1 2 cbr 500 ------- 0 0.0 2.0 36 36
d 0.406 1 2 cbr 500 ------- 0 0.0 2.0 36 36
+ 0.41 0 1 cbr 500 ------- 0 0.0 2.0 62 62
- 0.411333 1 2 cbr 500 ------- 0 0.0 2.0 22 22
- 0.412 0 1 cbr 500 ------- 0 0.0 2.0 39 39
r 0.414 0 1 cbr 500 ------- 0 0.0 2.0 37 37
+ 0.414 1 2 cbr 500 ------- 0 0.0 2.0 37 37
+ 0.415 0 1 cbr 500 ------- 0 0.0 2.0 63 63
r 0.418 1 2 cbr 500 ------- 0 0.0 2.0 20 20
- 0.42 0 1 cbr 500 ------- 0 0.0 2.0 40 40
+ 0.42 0 1 cbr 500 ------- 0 0.0 2.0 64 64
r 0.422 0 1 cbr 500 ------- 0 0.0 2.0 38 38
+ 0.422 1 2 cbr 500 ------- 0 0.0 2.0 38 38
d 0.422 1 2 cbr 500 ------- 0 0.0 2.0 38 38
- 0.424667 1 2 cbr 500 ------- 0 0.0 2.0 24 24
+ 0.425 0 1 cbr 500 ------- 0 0.0 2.0 65 65
- 0.428 0 1 cbr 500 ------- 0 0.0 2.0 41 41
r 0.43 0 1 cbr 500 ------- 0 0.0 2.0 39 39
+ 0.43 1 2 cbr 500 ------- 0 0.0 2.0 39 39
+ 0.43 0 1 cbr 500 ------- 0 0.0 2.0 66 66
r 0.431333 1 2 cbr 500 ------- 0 0.0 2.0 21 21
+ 0.435 0 1 cbr 500 ------- 0 0.0 2.0 67 67
- 0.436 0 1 cbr 500 ------- 0 0.0 2.0 42 42
- 0.438 1 2 cbr 500 ------- 0 0.0 2.0 25 25
r 0.438 0 1 cbr 500 ------- 0 0.0 2.0 40 40
+ 0.438 1 2 cbr 500 ------- 0 0.0 2.0 40 40
+ 0.44 0 1 cbr 500 ------- 0 0.0 2.0 68 68
- 0.444 0 1 cbr 500 ------- 0 0.0 2.0 43 43
r 0.444667 1 2 cbr 500 ------- 0 0.0 2.0 22 22
+ 0.445 0 1 cbr 500 ------- 0 0.0 2.0 69 69
r 0.446 0 1 cbr 500 ------- 0 0.0 2.0 41 41
+ 0.446 1 2 cbr 500 ------- 0 0.0 2.0 41 41
d 0.446 1 2 cbr 500 ------- 0 0.0 2.0 41 41
+ 0.45 0 1 cbr 500 ------- 0 0.0 2.0 70 70
- 0.451333 1 2 cbr 500 ------- 0 0.0 2.0 27 27
- 0.452 0 1 cbr 500 ------- 0 0.0 2.0 44 44
r 0.454 0 1 cbr 500 ------- 0 0.0 2.0 42 42
+ 0.454 1 2 cbr 500 ------- 0 0.0 2.0 42 42
+ 0.455 0 1 cbr 500 ------- 0 0.0 2.0 71 71
r 0.458 1 2 cbr 500 ------- 0 0.0 2.0 24 24
- 0.46 0 1 cbr 500 ------- 0 0.0 2.0 45 45
+ 0.46 0 1 cbr 500 ------- 0 0.0 2.0 72 72
r 0.462 0 1 cbr 500 ------- 0 0.0 2.0 43 43
+ 0.462 1 2 cbr 500 ------- 0 0.0 2.0 43 43
d 0.462 1 2 cbr 500 ------- 0 0.0 2.0 43 43
- 0.464667 1 2 cbr 500 ------- 0 0.0 2.0 29 29
+ 0.465 0 1 cbr 500 ------- 0 0.0 2.0 73 73
- 0.468 0 1 cbr 500 ------- 0 0.0 2.0 46 46
r 0.47 0 1 cbr 500 ------- 0 0.0 2.0 44 44
+ 0.47 1 2 cbr 500 ------- 0 0.0 2.0 44 44
+ 0.47 0 1 cbr 500 ------- 0 0.0 2.0 74 74
r 0.471333 1 2 cbr 500 ------- 0 0.0 2.0 25 25
+ 0.475 0 1 cbr 500 ------- 0 0.0 2.0 75 75
- 0.476 0 1 cbr 500 ------- 0 0.0 2.0 47 47
- 0.478 1 2 cbr 500 ------- 0 0.0 2.0 30 30
r 0.478 0 1 cbr 500 ------- 0 0.0 2.0 45 45
+ 0.478 1 2 cbr 500 ------- 0 0.0 2.0 45 45
+ 0.48 0 1 cbr 500 ------- 0 0.0 2.0 76 76
- 0.484 0 1 cbr 500 ------- 0 0.0 2.0 48 48
r 0.484667 1 2 cbr 500 ------- 0 0.0 2.0 27 27
+ 0.485 0 1 cbr 500 ------- 0 0.0 2.0 77 77
r 0.486 0 1 cbr 500 ------- 0 0.0 2.0 46 46
+ 0.486 1 2 cbr 500 ------- 0 0.0 2.0 46 46
d 0.486 1 2 cbr 500 ------- 0 0.0 2.0 46 46
+ 0.49 0 1 cbr 500 ------- 0 0.0 2.0 78 78
- 0.491333 1 2 cbr 500 ------- 0 0.0 2.0 32 32
- 0.492 0 1 cbr 500 ------- 0 0.0 2.0 49 49
r 0.494 0 1 cbr 500 ------- 0 0.0 2.0 47 47
+ 0.494 1 2 cbr 500 ------- 0 0.0 2.0 47 47
+ 0.495 0 1 cbr 500 ------- 0 0.0 2.0 79 79
r 0.498 1 2 cbr 500 ------- 0 0.0 2.0 29 29
- 0.5 0 1 cbr 500 ------- 0 0.0 2.0 50 50
+ 0.5 0 1 cbr 500 ------- 0 0.0 2.0 80 80
r 0.502 0 1 cbr 500 ------- 0 0.0 2.0 48 48
+ 0.502 1 2 cbr 500 ------- 0 0.0 2.0 48 48
d 0.502 1 2 cbr 500 ------- 0 0.0 2.0 48 48
- 0.504667 1 2 cbr 500 ------- 0 0.0 2.0 34 34
+ 0.505 0 1 cbr 500 ------- 0 0.0 2.0 81 81
- 0.508 0 1 cbr 500 ------- 0 0.0 2.0 51 51
r 0.51 0 1 cbr 500 ------- 0 0.0 2.0 49 49
+ 0.51 1 2 cbr 500 ------- 0 0.0 2.0 49 49
+ 0.51 0 1 cbr 500 ------- 0 0.0 2.0 82 82
r 0.511333 1 2 cbr 500 ------- 0 0.0 2.0 30 30
+ 0.515 0 1 cbr 500 ------- 0 0.0 2.0 83 83
- 0.516 0 1 cbr 500 ------- 0 0.0 2.0 52 52
- 0.518 1 2 cbr 500 ------- 0 0.0 2.0 35 35
r 0.518 0 1 cbr 500 ------- 0 0.0 2.0 50 50
+ 0.518 1 2 cbr 500 ------- 0 0.0 2.0 50 50
+ 0.52 0 1 cbr 500 ------- 0 0.0 2.0 84 84
- 0.524 0 1 cbr 500 ------- 0 0.0 2.0 53 53
r 0.524667 1 2 cbr 500 ------- 0 0.0 2.0 32 32
+ 0.525 0 1 cbr 500 ------- 0 0.0 2.0 85 85
r 0.526 0 1 cbr 500 ------- 0 0.0 2.0 51 51
+ 0.526 1 2 cbr 500 ------- 0 0.0 2.0 51 51
d 0.526 1 2 cbr 500 ------- 0 0.0 2.0 51 51
+ 0.53 0 1 cbr 500 ------- 0 0.0 2.0 86 86
- 0.531333 1 2 cbr 500 ------- 0 0.0 2.0 37 37
- 0.532 0 1 cbr 500 ------- 0 0.0 2.0 54 54
r 0.534 0 1 cbr 500 ------- 0 0.0 2.0 52 52
+ 0.534 1 2 cbr 500 ------- 0 0.0 2.0 52 52
+ 0.535 0 1 cbr 500 ------- 0 0.0 2.0 87 87
r 0.538 1 2 cbr 500 ------- 0 0.0 2.0 34 34
- 0.54 0 1 cbr 500 ------- 0 0.0 2.0 55 55
+ 0.54 0 1 cbr 500 ------- 0 0.0 2.0 88 88
r 0.542 0 1 cbr 500 ------- 0 0.0 2.0 53 53
+ 0.542 1 2 cbr 500 ------- 0 0.0 2.0 53 53
d 0.542 1 2 cbr 500 ------- 0 0.0 2.0 53 53
- 0.544667 1 2 cbr 500 ------- 0 0.0 2.0 39 39
+ 0.545 0 1 cbr 500 ------- 0 0.0 2.0 89 89
- 0.548 0 1 cbr 500 ------- 0 0.0 2.0 56 56
r 0.55 0 1 cbr 500 ------- 0 0.0 2.0 54 54
+ 0.55 1 2 cbr 500 ------- 0 0.0 2.0 54 54
+ 0.55 0 1 cbr 500 ------- 0 0.0 2.0 90 90
r 0.551333 1 2 cbr 500 ------- 0 0.0 2.0 35 35
+ 0.555 0 1 cbr 500 ------- 0 0.0 2.0 91 91
- 0.556 0 1 cbr 500 ------- 0 0.0 2.0 57 57
- 0.558 1 2 cbr 500 ------- 0 0.0 2.0 40 40
r 0.558 0 1 cbr 500 ------- 0 0.0 2.0 55 55
+ 0.558 1 2 cbr 500 ------- 0 0.0 2.0 55 55
+ 0.56 0 1 cbr 500 ------- 0 0.0 2.0 92 92
- 0.564 0 1 cbr 500 ------- 0 0.0 2.0 58 58
r 0.564667 1 2 cbr 500 ------- 0 0.0 2.0 37 37
+ 0.565 0 1 cbr 500 ------- 0 0.0 2.0 93 93
r 0.566 0 1 cbr 500 ------- 0 0.0 2.0 56 56
+ 0.566 1 2 cbr 500 ------- 0 0.0 2.0 56 56
d 0.566 1 2 cbr 500 ------- 0 0.0 2.0 56 56
+ 0.57 0 1 cbr 500 ------- 0 0.0 2.0 94 94
- 0.571333 1 2 cbr 500 ------- 0 0.0 2.0 42 42
- 0.572 0 1 cbr 500 ------- 0 0.0 2.0 59 59
r 0.574 0 1 cbr 500 ------- 0 0.0 2.0 57 57
+ 0.574 1 2 cbr 500 ------- 0 0.0 2.0 57 57
+ 0.575 0 1 cbr 500 ------- 0 0.0 2.0 95 95
r 0.578 1 2 cbr 500 ------- 0 0.0 2.0 39 39
- 0.58 0 1 cbr 500 ------- 0 0.0 2.0 60 60
+ 0.58 0 1 cbr 500 ------- 0 0.0 2.0 96 96
r 0.582 0 1 cbr 500 ------- 0 0.0 2.0 58 58
+ 0.582 1 2 cbr 500 ------- 0 0.0 2.0 58 58
d 0.582 1 2 cbr 500 ------- 0 0.0 2.0 58 58
- 0.584667 1 2 cbr 500 ------- 0 0.0 2.0 44 44
+ 0.585 0 1 cbr 500 ------- 0 0.0 2.0 97 97
- 0.588 0 1 cbr 500 ------- 0 0.0 2.0 61 61
r 0.59 0 1 cbr 500 ------- 0 0.0 2.0 59 59
+ 0.59 1 2 cbr 500 ------- 0 0.0 2.0 59 59
+ 0.59 0 1 cbr 500 ------- 0 0.0 2.0 98 98
r 0.591333 1 2 cbr 500 ------- 0 0.0 2.0 40 40
+ 0.595 0 1 cbr 500 ------- 0 0.0 2.0 99 99
- 0.596 0 1 cbr 500 ------- 0 0.0 2.0 62 62
- 0.598 1 2 cbr 500 ------- 0 0.0 2.0 45 45
r 0.598 0 1 cbr 500 ------- 0 0.0 2.0 60 60
+ 0.598 1 2 cbr 500 ------- 0 0.0 2.0 60 60
+ 0.6 0 1 cbr 500 ------- 0 0.0 2.0 100 100
- 0.604 0 1 cbr 500 ------- 0 0.0 2.0 63 63
r 0.604667 1 2 cbr 500 ------- 0 0.0 2.0 42 42
+ 0.605 0 1 cbr 500 ------- 0 0.0 2.0 101 101
r 0.606 0 1 cbr 500 ------- 0 0.0 2.0 61 61
+ 0.606 1 2 cbr 500 ------- 0 0.0 2.0 61 61
d 0.606 1 2 cbr 500 ------- 0 0.0 2.0 61 61
+ 0.61 0 1 cbr 500 ------- 0 0.0 2.0 102 102
- 0.611333 1 2 cbr 500 ------- 0 0.0 2.0 47 47
- 0.612 0 1 cbr 500 ------- 0 0.0 2.0 64 64
r 0.614 0 1 cbr 500 ------- 0 0.0 2.0 62 62
+ 0.614 1 2 cbr 500 ------- 0 0.0 2.0 62 62
+ 0.615 0 1 cbr 500 ------- 0 0.0 2.0 103 103
r 0.618 1 2 cbr 500 ------- 0 0.0 2.0 44 44
- 0.62 0 1 cbr 500 ------- 0 0.0 2.0 65 65
+ 0.62 0 1 cbr 500 ------- 0 0.0 2.0 104 104
r 0.622 0 1 cbr 500 ------- 0 0.0 2.0 63 63
+ 0.622 1 2 cbr 500 ------- 0 0.0 2.0 63 63
d 0.622 1 2 cbr 500 ------- 0 0.0 2.0 63 63
- 0.624667 1 2 cbr 500 ------- 0 0.0 2.0 49 49
+ 0.625 0 1 cbr 500 ------- 0 0.0 2.0 105 105
- 0.628 0 1 cbr 500 ------- 0 0.0 2.0 66 66
r 0.63 0 1 cbr 500 ------- 0 0.0 2.0 64 64
+ 0.63 1 2 cbr 500 ------- 0 0.0 2.0 64 64
+ 0.63 0 1 cbr 500 ------- 0 0.0 2.0 106 106
r 0.631333 1 2 cbr 500 ------- 0 0.0 2.0 45 45
+ 0.635 0 1 cbr 500 ------- 0 0.0 2.0 107 107
- 0.636 0 1 cbr 500 ------- 0 0.0 2.0 67 67
- 0.638 1 2 cbr 500 ------- 0 0.0 2.0 50 50
r 0.638 0 1 cbr 500 ------- 0 0.0 2.0 65 65
+ 0.638 1 2 cbr 500 ------- 0 0.0 2.0 65 65
+ 0.64 0 1 cbr 500 ------- 0 0.0 2.0 108 108
- 0.644 0 1 cbr 500 ------- 0 0.0 2.0 68 68
r 0.644667 1 2 cbr 500 ------- 0 0.0 2.0 47 47
+ 0.645 0 1 cbr 500 ------- 0 0.0 2.0 109 109
r 0.646 0 1 cbr 500 ------- 0 0.0 2.0 66 66
+ 0.646 1 2 cbr 500 ------- 0 0.0 2.0 66 66
d 0.646 1 2 cbr 500 ------- 0 0.0 2.0 66 66
+ 0.65 0 1 cbr 500 ------- 0 0.0 2.0 110 110
- 0.651333 1 2 cbr 500 ------- 0 0.0 2.0 52 52
- 0.652 0 1 cbr 500 ------- 0 0.0 2.0 69 69
r 0.654 0 1 cbr 500 ------- 0 0.0 2.0 67 67
+ 0.654 1 2 cbr 500 ------- 0 0.0 2.0 67 67
+ 0.655 0 1 cbr 500 ------- 0 0.0 2.0 111 111
r 0.658 1 2 cbr 500 ------- 0 0.0 2.0 49 49
- 0.66 0 1 cbr 500 ------- 0 0.0 2.0 70 70
+ 0.66 0 1 cbr 500 ------- 0 0.0 2.0 112 112
r 0.662 0 1 cbr 500 ------- 0 0.0 2.0 68 68
+ 0.662 1 2 cbr 500 ------- 0 0.0 2.0 68 68
d 0.662 1 2 cbr 500 ------- 0 0.0 2.0 68 68
- 0.664667 1 2 cbr 500 ------- 0 0.0 2.0 54 54
+ 0.665 0 1 cbr 500 ------- 0 0.0 2.0 113 113
- 0.668 0 1 cbr 500 ------- 0 0.0 2.0 71 71
r 0.67 0 1 cbr 500 ------- 0 0.0 2.0 69 69
+ 0.67 1 2 cbr 500 ------- 0 0.0 2.0 69 69
+ 0.67 0 1 cbr 500 ------- 0 0.0 2.0 114 114
r 0.671333 1 2 cbr 500 ------- 0 0.0 2.0 50 50
+ 0.675 0 1 cbr 500 ------- 0 0.0 2.0 115 115
- 0.676 0 1 cbr 500 ------- 0 0.0 2.0 72 72
- 0.678 1 2 cbr 500 ------- 0 0.0 2.0 55 55
r 0.678 0 1 cbr 500 ------- 0 0.0 2.0 70 70
+ 0.678 1 2 cbr 500 ------- 0 0.0 2.0 70 70
+ 0.68 0 1 cbr 500 ------- 0 0.0 2.0 116 116
- 0.684 0 1 cbr 500 ------- 0 0.0 2.0 73 73
r 0.684667 1 2 cbr 500 ------- 0 0.0 2.0 52 52
+ 0.685 0 1 cbr 500 ------- 0 0.0 2.0 117 117
r 0.686 0 1 cbr 500 ------- 0 0.0 2.0 71 71
+ 0.686 1 2 cbr 500 ------- 0 0.0 2.0 71 71
d 0.686 1 2 cbr 500 ------- 0 0.0 2.0 71 71
+ 0.69 0 1 cbr 500 ------- 0 0.0 2.0 118 118
- 0.691333 1 2 cbr 500 ------- 0 0.0 2.0 57 57
- 0.692 0 1 cbr 500 ------- 0 0.0 2.0 74 74
r 0.694 0 1 cbr 500 ------- 0 0.0 2.0 72 72
+ 0.694 1 2 cbr 500 ------- 0 0.0 2.0 72 72
+ 0.695 0 1 cbr 500 ------- 0 0.0 2.0 119 119
r 0.698 1 2 cbr 500 ------- 0 0.0 2.0 54 54
- 0.7 0 1 cbr 500 ------- 0 0.0 2.0 75 75
+ 0.7 0 1 cbr 500 ------- 0 0.0 2.0 120 120
r 0.702 0 1 cbr 500 ------- 0 0.0 2.0 73 73
+ 0.702 1 2 cbr 500 ------- 0 0.0 2.0 73 73
d 0.702 1 2 cbr 500 ------- 0 0.0 2.0 73 73
- 0.704667 1 2 cbr 500 ------- 0 0.0 2.0 59 59
+ 0.705 0 1 cbr 500 ------- 0 0.0 2.0 121 121
- 0.708 0 1 cbr 500 ------- 0 0.0 2.0 76 76
r 0.71 0 1 cbr 500 ------- 0 0.0 2.0 74 74
+ 0.71 1 2 cbr 500 ------- 0 0.0 2.0 74 74
+ 0.71 0 1 cbr 500 ------- 0 0.0 2.0 122 122
r 0.711333 1 2 cbr 500 ------- 0 0.0 2.0 55 55
+ 0.715 0 1 cbr 500 ------- 0 0.0 2.0 123 123
- 0.716 0 1 cbr 500 ------- 0 0.0 2.0 77 77
- 0.718 1 2 cbr 500 ------- 0 0.0 2.0 60 60
r 0.718 0 1 cbr 500 ------- 0 0.0 2.0 75 75
+ 0.718 1 2 cbr 500 ------- 0 0.0 2.0 75 75
+ 0.72 0 1 cbr 500 ------- 0 0.0 2.0 124 124
- 0.724 0 1 cbr 500 ------- 0 0.0 2.0 78 78
r 0.724667 1 2 cbr 500 ------- 0 0.0 2.0 57 57
+ 0.725 0 1 cbr 500 ------- 0 0.0 2.0 125 125
r 0.726 0 1 cbr 500 ------- 0 0.0 2.0 76 76
+ 0.726 1 2 cbr 500 ------- 0 0.0 2.0 76 76
d 0.726 1 2 cbr 500 ------- 0 0.0 2.0 76 76
+ 0.73 0 1 cbr 500 ------- 0 0.0 2.0 126 126
- 0.731333 1 2 cbr 500 ------- 0 0.0 2.0 62 62
- 0.732 0 1 cbr 500 ------- 0 0.0 2.0 79 79
r 0.734 0 1 cbr 500 ------- 0 0.0 2.0 77 77
+ 0.734 1 2 cbr 500 ------- 0 0.0 2.0 77 77
+ 0.735 0 1 cbr 500 ------- 0 0.0 2.0 127 127
r 0.738 1 2 cbr 500 ------- 0 0.0 2.0 59 59
- 0.74 0 1 cbr 500 ------- 0 0.0 2.0 80 80
+ 0.74 0 1 cbr 500 ------- 0 0.0 2.0 128 128
r 0.742 0 1 cbr 500 ------- 0 0.0 2.0 78 78
+ 0.742 1 2 cbr 500 ------- 0 0.0 2.0 78 78
d 0.742 1 2 cbr 500 ------- 0 0.0 2.0 78 78
- 0.744667 1 2 cbr 500 ------- 0 0.0 2.0 64 64
+ 0.745 0 1 cbr 500 ------- 0 0.0 2.0 129 129
- 0.748 0 1 cbr 500 ------- 0 0.0 2.0 81 81
r 0.75 0 1 cbr 500 ------- 0 0.0 2.0 79 79
+ 0.75 1 2 cbr 500 ------- 0 0.0 2.0 79 79
+ 0.75 0 1 cbr 500 ------- 0 0.0 2.0 130 130
r 0.751333 1 2 cbr 500 ------- 0 0.0 2.0 60 60
+ 0.755 0 1 cbr 500 ------- 0 0.0 2.0 131 131
d 0.755 0 1 cbr 500 ------- 0 0.0 2.0 131 131
- 0.756 0 1 cbr 500 ------- 0 0.0 2.0 82 82
- 0.758 1 2 cbr 500 ------- 0 0.0 2.0 65 65
r 0.758 0 1 cbr 500 ------- 0 0.0 2.0 80 80
+ 0.758 1 2 cbr 500 ------- 0 0.0 2.0 80 80
+ 0.76 0 1 cbr 500 ------- 0 0.0 2.0 132 132
- 0.764 0 1 cbr 500 ------- 0 0.0 2.0 83 83
r 0.764667 1 2 cbr 500 ------- 0 0.0 2.0 62 62
+ 0.765 0 1 cbr 500 ------- 0 0.0 2.0 133 133
r 0.766 0 1 cbr 500 ------- 0 0.0 2.0 81 81
+ 0.766 1 2 cbr 500 ------- 0 0.0 2.0 81 81
d 0.766 1 2 cbr 500 ------- 0 0.0 2.0 81 81
+ 0.77 0 1 cbr 500 ------- 0 0.0 2.0 134 134
d 0.77 0 1 cbr 500 ------- 0 0.0 2.0 134 134
- 0.771333 1 2 cbr 500 ------- 0 0.0 2.0 67 67
- 0.772 0 1 cbr 500 ------- 0 0.0 2.0 84 84
r 0.774 0 1 cbr 500 ------- 0 0.0 2.0 82 82
+ 0.774 1 2 cbr 500 ------- 0 0.0 2.0 82 82
+ 0.775 0 1 cbr 500 ------- 0 0.0 2.0 135 135
r 0.778 1 2 cbr 500 ------- 0 0.0 2.0 64 64
- 0.78 0 1 cbr 500 ------- 0 0.0 2.0 85 85
+ 0.78 0 1 cbr 500 ------- 0 0.0 2.0 136 136
r 0.782 0 1 cbr 500 ------- 0 0.0 2.0 83 83
+ 0.782 1 2 cbr 500 ------- 0 0.0 2.0 83 83
d 0.782 1 2 cbr 500 ------- 0 0.0 2.0 83 83
- 0.784667 1 2 cbr 500 ------- 0 0.0 2.0 69 69
+ 0.785 0 1 cbr 500 ------- 0 0.0 2.0 137 137
d 0.785 0 1 cbr 500 ------- 0 0.0 2.0 137 137
- 0.788 0 1 cbr 500 ------- 0 0.0 2.0 86 86
r 0.79 0 1 cbr 500 ------- 0 0.0 2.0 84 84
+ 0.79 1 2 cbr 500 ------- 0 0.0 2.0 84 84
+ 0.79 0 1 cbr 500 ------- 0 0.0 2.0 138 138
r 0.791333 1 2 cbr 500 ------- 0 0.0 2.0 65 65
+ 0.795 0 1 cbr 500 ------- 0 0.0 2.0 139 139
d 0.795 0 1 cbr 500 ------- 0 0.0 2.0 139 139
- 0.796 0 1 cbr 500 ------- 0 0.0 2.0 87 87
- 0.798 1 2 cbr 500 ------- 0 0.0 2.0 70 70
r 0.798 0 1 cbr 500 ------- 0 0.0 2.0 85 85
+ 0.798 1 2 cbr 500 ------- 0 0.0 2.0 85 85
+ 0.8 0 1 cbr 500 ------- 0 0.0 2.0 140 140
- 0.804 0 1 cbr 500 ------- 0 0.0 2.0 88 88
r 0.804667 1 2 cbr 500 ------- 0 0.0 2.0 67 67
+ 0.805 0 1 cbr 500 ------- 0 0.0 2.0 141 141
r 0.806 0 1 cbr 500 ------- 0 0.0 2.0 86 86
+ 0.806 1 2 cbr 500 ------- 0 0.0 2.0 86 86
d 0.806 1 2 cbr 500 ------- 0 0.0 2.0 86 86
+ 0.81 0 1 cbr 500 ------- 0 0.0 2.0 142 142
d 0.81 0 1 cbr 500 ------- 0 0.0 2.0 142 142
- 0.811333 1 2 cbr 500 ------- 0 0.0 2.0 72 72
- 0.812 0 1 cbr 500 ------- 0 0.0 2.0 89 89
r 0.814 0 1 cbr 500 ------- 0 0.0 2.0 87 87
+ 0.814 1 2 cbr 500 ------- 0 0.0 2.0 87 87
+ 0.815 0 1 cbr 500 ------- 0 0.0 2.0 143 143
r 0.818 1 2 cbr 500 ------- 0 0.0 2.0 69 69
- 0.82 0 1 cbr 500 ------- 0 0.0 2.0 90 90
+ 0.82 0 1 cbr 500 ------- 0 0.0 2.0 144 144
r 0.822 0 1 cbr 500 ------- 0 0.0 2.0 88 88
+ 0.822 1 2 cbr 500 ------- 0 0.0 2.0 88 88
d 0.822 1 2 cbr 500 ------- 0 0.0 2.0 88 88
- 0.824667 1 2 cbr 500 ------- 0 0.0 2.0 74 74
+ 0.825 0 1 cbr 500 ------- 0 0.0 2.0 145 145
d 0.825 0 1 cbr 500 ------- 0 0.0 2.0 145 145
- 0.828 0 1 cbr 500 ------- 0 0.0 2.0 91 91
r 0.83 0 1 cbr 500 ------- 0 0.0 2.0 89 89
+ 0.83 1 2 cbr 500 ------- 0 0.0 2.0 89 89
+ 0.83 0 1 cbr 500 ------- 0 0.0 2.0 146 146
r 0.831333 1 2 cbr 500 ------- 0 0.0 2.0 70 70
+ 0.835 0 1 cbr 500 ------- 0 0.0 2.0 147 147
d 0.835 0 1 cbr 500 ------- 0 0.0 2.0 147 147
- 0.836 0 1 cbr 500 ------- 0 0.0 2.0 92 92
- 0.838 1 2 cbr 500 ------- 0 0.0 2.0 75 75
r 0.838 0 1 cbr 500 ------- 0 0.0 2.0 90 90
+ 0.838 1 2 cbr 500 ------- 0 0.0 2.0 90 90
+ 0.84 0 1 cbr 500 ------- 0 0.0 2.0 148 148
- 0.844 0 1 cbr 500 ------- 0 0.0 2.0 93 93
r 0.844667 1 2 cbr 500 ------- 0 0.0 2.0 72 72
+ 0.845 0 1 cbr 500 ------- 0 0.0 2.0 149 149
r 0.846 0 1 cbr 500 ------- 0 0.0 2.0 91 91
+ 0.846 1 2 cbr 500 ------- 0 0.0 2.0 91 91
d 0.846 1 2 cbr 500 ------- 0 0.0 2.0 91 91
+ 0.85 0 1 cbr 500 ------- 0 0.0 2.0 150 150
d 0.85 0 1 cbr 500 ------- 0 0.0 2.0 150 150
- 0.851333 1 2 cbr 500 ------- 0 0.0 2.0 77 77
- 0.852 0 1 cbr 500 ------- 0 0.0 2.0 94 94
r 0.854 0 1 cbr 500 ------- 0 0.0 2.0 92 92
+ 0.854 1 2 cbr 500 ------- 0 0.0 2.0 92 92
+ 0.855 0 1 cbr 500 ------- 0 0.0 2.0 151 151
r 0.858 1 2 cbr 500 ------- 0 0.0 2.0 74 74
- 0.86 0 1 cbr 500 ------- 0 0.0 2.0 95 95
+ 0.86 0 1 cbr 500 ------- 0 0.0 2.0 152 152
r 0.862 0 1 cbr 500 ------- 0 0.0 2.0 93 93
+ 0.862 1 2 cbr 500 ------- 0 0.0 2.0 93 93
d 0.862 1 2 cbr 500 ------- 0 0.0 2.0 93 93
- 0.864667 1 2 cbr 500 ------- 0 0.0 2.0 79 79
+ 0.865 0 1 cbr 500 ------- 0 0.0 2.0 153 153
d 0.865 0 1 cbr 500 ------- 0 0.0 2.0 153 153
- 0.868 0 1 cbr 500 ------- 0 0.0 2.0 96 96
r 0.87 0 1 cbr 500 ------- 0 0.0 2.0 94 94
+ 0.87 1 2 cbr 500 ------- 0 0.0 2.0 94 94
+ 0.87 0 1 cbr 500 ------- 0 0.0 2.0 154 154
r 0.871333 1 2 cbr 500 ------- 0 0.0 2.0 75 75
+ 0.875 0 1 cbr 500 ------- 0 0.0 2.0 155 155
d 0.875 0 1 cbr 500 ------- 0 0.0 2.0 155 155
- 0.876 0 1 cbr 500 ------- 0 0.0 2.0 97 97
- 0.878 1 2 cbr 500 ------- 0 0.0 2.0 80 80
r 0.878 0 1 cbr 500 ------- 0 0.0 2.0 95 95
+ 0.878 1 2 cbr 500 ------- 0 0.0 2.0 95 95
+ 0.88 0 1 cbr 500 ------- 0 0.0 2.0 156 156
- 0.884 0 1 cbr 500 ------- 0 0.0 2.0 98 98
r 0.884667 1 2 cbr 500 ------- 0 0.0 2.0 77 77
+ 0.885 0 1 cbr 500 ------- 0 0.0 2.0 157 157
r 0.886 0 1 cbr 500 ------- 0 0.0 2.0 96 96
+ 0.886 1 2 cbr 500 ------- 0 0.0 2.0 96 96
d 0.886 1 2 cbr 500 ------- 0 0.0 2.0 96 96
+ 0.89 0 1 cbr 500 ------- 0 0.0 2.0 158 158
d 0.89 0 1 cbr 500 ------- 0 0.0 2.0 158 158
- 0.891333 1 2 cbr 500 ------- 0 0.0 2.0 82 82
- 0.892 0 1 cbr 500 ------- 0 0.0 2.0 99 99
r 0.894 0 1 cbr 500 ------- 0 0.0 2.0 97 97
+ 0.894 1 2 cbr 500 ------- 0 0.0 2.0 97 97
+ 0.895 0 1 cbr 500 ------- 0 0.0 2.0 159 159
r 0.898 1 2 cbr 500 ------- 0 0.0 2.0 79 79
- 0.9 0 1 cbr 500 ------- 0 0.0 2.0 100 100
+ 0.9 0 1 cbr 500 ------- 0 0.0 2.0 160 160
r 0.902 0 1 cbr 500 ------- 0 0.0 2.0 98 98
+ 0.902 1 2 cbr 500 ------- 0 0.0 2.0 98 98
d 0.902 1 2 cbr 500 ------- 0 0.0 2.0 98 98
- 0.904667 1 2 cbr 500 ------- 0 0.0 2.0 84 84
+ 0.905 0 1 cbr 500 ------- 0 0.0 2.0 161 161
d 0.905 0 1 cbr 500 ------- 0 0.0 2.0 161 161
- 0.908 0 1 cbr 500 ------- 0 0.0 2.0 101 101
r 0.91 0 1 cbr 500 ------- 0 0.0 2.0 99 99
+ 0.91 1 2 cbr 500 ------- 0 0.0 2.0 99 99
+ 0.91 0 1 cbr 500 ------- 0 0.0 2.0 162 162
r 0.911333 1 2 cbr 500 ------- 0 0.0 2.0 80 80
+ 0.915 0 1 cbr 500 ------- 0 0.0 2.0 163 163
d 0.915 0 1 cbr 500 ------- 0 0.0 2.0 163 163
- 0.916 0 1 cbr 500 ------- 0 0.0 2.0 102 102
- 0.918 1 2 cbr 500 ------- 0 0.0 2.0 85 85
r 0.918 0 1 cbr 500 ------- 0 0.0 2.0 100 100
+ 0.918 1 2 cbr 500 ------- 0 0.0 2.0 100 100
+ 0.92 0 1 cbr 500 ------- 0 0.0 2.0 164 164
- 0.924 0 1 cbr 500 ------- 0 0.0 2.0 103 103
r 0.924667 1 2 cbr 500 ------- 0 0.0 2.0 82 82
+ 0.925 0 1 cbr 500 ------- 0 0.0 2.0 165 165
r 0.926 0 1 cbr 500 ------- 0 0.0 2.0 101 101
+ 0.926 1 2 cbr 500 ------- 0 0.0 2.0 101 101
d 0.926 1 2 cbr 500 ------- 0 0.0 2.0 101 101
+ 0.93 0 1 cbr 500 ------- 0 0.0 2.0 166 166
d 0.93 0 1 cbr 500 ------- 0 0.0 2.0 166 166
- 0.931333 1 2 cbr 500 ------- 0 0.0 2.0 87 87
- 0.932 0 1 cbr 500 ------- 0 0.0 2.0 104 104
r 0.934 0 1 cbr 500 ------- 0 0.0 2.0 102 102
+ 0.934 1 2 cbr 500 ------- 0 0.0 2.0 102 102
+ 0.935 0 1 cbr 500 ------- 0 0.0 2.0 167 167
r 0.938 1 2 cbr 500 ------- 0 0.0 2.0 84 84
- 0.94 0 1 cbr 500 ------- 0 0.0 2.0 105 105
+ 0.94 0 1 cbr 500 ------- 0 0.0 2.0 168 168
r 0.942 0 1 cbr 500 ------- 0 0.0 2.0 103 103
+ 0.942 1 2 cbr 500 ------- 0 0.0 2.0 103 103
d 0.942 1 2 cbr 500 ------- 0 0.0 2.0 103 103
- 0.944667 1 2 cbr 500 ------- 0 0.0 2.0 89 89
+ 0.945 0 1 cbr 500 ------- 0 0.0 2.0 169 169
d 0.945 0 1 cbr 500 ------- 0 0.0 2.0 169 169
- 0.948 0 1 cbr 500 ------- 0 0.0 2.0 106 106
r 0.95 0 1 cbr 500 ------- 0 0.0 2.0 104 104
+ 0.95 1 2 cbr 500 ------- 0 0.0 2.0 104 104
+ 0.95 0 1 cbr 500 ------- 0 0.0 2.0 170 170
r 0.951333 1 2 cbr 500 ------- 0 0.0 2.0 85 85
+ 0.955 0 1 cbr 500 ------- 0 0.0 2.0 171 171
d 0.955 0 1 cbr 500 ------- 0 0.0 2.0 171 171
- 0.956 0 1 cbr 500 ------- 0 0.0 2.0 107 107
- 0.958 1 2 cbr 500 ------- 0 0.0 2.0 90 90
r 0.958 0 1 cbr 500 ------- 0 0.0 2.0 105 105
+ 0.958 1 2 cbr 500 ------- 0 0.0 2.0 105 105
+ 0.96 0 1 cbr 500 ------- 0 0.0 2.0 172 172
- 0.964 0 1 cbr 500 ------- 0 0.0 2.0 108 108
r 0.964667 1 2 cbr 500 ------- 0 0.0 2.0 87 87
+ 0.965 0 1 cbr 500 ------- 0 0.0 2.0 173 173
r 0.966 0 1 cbr 500 ------- 0 0.0 2.0 106 106
+ 0.966 1 2 cbr 500 ------- 0 0.0 2.0 106 106
d 0.966 1 2 cbr 500 ------- 0 0.0 2.0 106 106
+ 0.97 0 1 cbr 500 ------- 0 0.0 2.0 174 174
d 0.97 0 1 cbr 500 ------- 0 0.0 2.0 174 174
- 0.971333 1 2 cbr 500 ------- 0 0.0 2.0 92 92
- 0.972 0 1 cbr 500 ------- 0 0.0 2.0 109 109